TACC:  Starting up job 531828 
TACC:  Starting parallel tasks... 

     Program PWSCF v.6.5 starts on 14May2024 at 15: 0:57 

     This program is part of the open-source Quantum ESPRESSO suite
     for quantum simulation of materials; please cite
         "P. Giannozzi et al., J. Phys.:Condens. Matter 21 395502 (2009);
         "P. Giannozzi et al., J. Phys.:Condens. Matter 29 465901 (2017);
          URL http://www.quantum-espresso.org", 
     in publications or presentations arising from this work. More details at
     http://www.quantum-espresso.org/quote

     Parallel version (MPI), running on    16 processors

     MPI processes distributed on     1 nodes
     R & G space division:  proc/nbgrp/npool/nimage =      16
     Waiting for input...
     Reading input from standard input
Warning: card &CELL ignored
Warning: card / ignored

     Current dimensions of program PWSCF are:
     Max number of different atomic species (ntypx) = 10
     Max number of k-points (npk) =  40000
     Max angular momentum in pseudopotentials (lmaxx) =  3

     Subspace diagonalization in iterative solution of the eigenvalue problem:
     a serial algorithm will be used

 
     Parallelization info
     --------------------
     sticks:   dense  smooth     PW     G-vecs:    dense   smooth      PW
     Min         260     260     71                12592    12592    1805
     Max         262     262     72                12594    12594    1807
     Sum        4165    4165   1137               201485   201485   28887
 


     bravais-lattice index     =            1
     lattice parameter (alat)  =      22.8531  a.u.
     unit-cell volume          =   11935.3637 (a.u.)^3
     number of atoms/cell      =           64
     number of atomic types    =            2
     number of electrons       =       568.00
     number of Kohn-Sham states=          500
     kinetic-energy cutoff     =      25.0000  Ry
     charge density cutoff     =     100.0000  Ry
     convergence threshold     =      1.0E-07
     mixing beta               =       0.7000
     number of iterations used =            8  plain     mixing
     Exchange-correlation= SLA  PW   PSX  PSC
                           (   1   4  10   8   0   0   0)
     nstep                     =           50


     celldm(1)=  22.853105  celldm(2)=   0.000000  celldm(3)=   0.000000
     celldm(4)=   0.000000  celldm(5)=   0.000000  celldm(6)=   0.000000

     crystal axes: (cart. coord. in units of alat)
               a(1) = (   1.000000   0.000000   0.000000 )  
               a(2) = (   0.000000   1.000000   0.000000 )  
               a(3) = (   0.000000   0.000000   1.000000 )  

     reciprocal axes: (cart. coord. in units 2 pi/alat)
               b(1) = (  1.000000  0.000000  0.000000 )  
               b(2) = (  0.000000  1.000000  0.000000 )  
               b(3) = (  0.000000  0.000000  1.000000 )  


     PseudoPot. # 1 for In read from file:
     /work/09550/ashipley/stampede3/PP/in_pbesol_v1.4.uspp.F.UPF
     MD5 check sum: e433ca97da0ddf4e85828ac3dca7e814
     Pseudo is Ultrasoft + core correction, Zval = 13.0
     Generated by new atomic code, or converted to UPF format
     Using radial grid of  889 points,  6 beta functions with: 
                l(1) =   0
                l(2) =   0
                l(3) =   1
                l(4) =   1
                l(5) =   2
                l(6) =   2
     Q(r) pseudized with  6 coefficients,  rinner =    1.400   1.400   1.400
                                                       1.400   1.400

     PseudoPot. # 2 for As read from file:
     /work/09550/ashipley/stampede3/PP/as_pbesol_v1.uspp.F.UPF
     MD5 check sum: 90d6127a473f66d6a49077fb6be097f2
     Pseudo is Ultrasoft + core correction, Zval =  5.0
     Generated by new atomic code, or converted to UPF format
     Using radial grid of  875 points,  6 beta functions with: 
                l(1) =   0
                l(2) =   0
                l(3) =   1
                l(4) =   1
                l(5) =   2
                l(6) =   2
     Q(r) pseudized with  8 coefficients,  rinner =    1.300   1.300   1.300
                                                       1.300   1.300

     atomic species   valence    mass     pseudopotential
        In            13.00   114.81800     In( 1.00)
        As             5.00    74.92160     As( 1.00)

     Starting magnetic structure 
     atomic species   magnetization
        In           0.000
        As           0.000

     24 Sym. Ops. (no inversion) found


                                    s                        frac. trans.

      isym =  1     identity                                     

 cryst.   s( 1) = (     1          0          0      )
                  (     0          1          0      )
                  (     0          0          1      )

 cart.    s( 1) = (  1.0000000  0.0000000  0.0000000 )
                  (  0.0000000  1.0000000  0.0000000 )
                  (  0.0000000  0.0000000  1.0000000 )


      isym =  2     180 deg rotation - cart. axis [0,0,1]        

 cryst.   s( 2) = (    -1          0          0      )
                  (     0         -1          0      )
                  (     0          0          1      )

 cart.    s( 2) = ( -1.0000000  0.0000000  0.0000000 )
                  (  0.0000000 -1.0000000  0.0000000 )
                  (  0.0000000  0.0000000  1.0000000 )


      isym =  3     180 deg rotation - cart. axis [0,1,0]        

 cryst.   s( 3) = (    -1          0          0      )
                  (     0          1          0      )
                  (     0          0         -1      )

 cart.    s( 3) = ( -1.0000000  0.0000000  0.0000000 )
                  (  0.0000000  1.0000000  0.0000000 )
                  (  0.0000000  0.0000000 -1.0000000 )


      isym =  4     180 deg rotation - cart. axis [1,0,0]        

 cryst.   s( 4) = (     1          0          0      )
                  (     0         -1          0      )
                  (     0          0         -1      )

 cart.    s( 4) = (  1.0000000  0.0000000  0.0000000 )
                  (  0.0000000 -1.0000000  0.0000000 )
                  (  0.0000000  0.0000000 -1.0000000 )


      isym =  5     120 deg rotation - cart. axis [-1,-1,-1]     

 cryst.   s( 5) = (     0          0          1      )
                  (     1          0          0      )
                  (     0          1          0      )

 cart.    s( 5) = (  0.0000000  1.0000000  0.0000000 )
                  (  0.0000000  0.0000000  1.0000000 )
                  (  1.0000000  0.0000000  0.0000000 )


      isym =  6     120 deg rotation - cart. axis [-1,1,1]       

 cryst.   s( 6) = (     0          0         -1      )
                  (    -1          0          0      )
                  (     0          1          0      )

 cart.    s( 6) = (  0.0000000 -1.0000000  0.0000000 )
                  (  0.0000000  0.0000000  1.0000000 )
                  ( -1.0000000  0.0000000  0.0000000 )


      isym =  7     120 deg rotation - cart. axis [1,1,-1]       

 cryst.   s( 7) = (     0          0         -1      )
                  (     1          0          0      )
                  (     0         -1          0      )

 cart.    s( 7) = (  0.0000000  1.0000000  0.0000000 )
                  (  0.0000000  0.0000000 -1.0000000 )
                  ( -1.0000000  0.0000000  0.0000000 )


      isym =  8     120 deg rotation - cart. axis [1,-1,1]       

 cryst.   s( 8) = (     0          0          1      )
                  (    -1          0          0      )
                  (     0         -1          0      )

 cart.    s( 8) = (  0.0000000 -1.0000000  0.0000000 )
                  (  0.0000000  0.0000000 -1.0000000 )
                  (  1.0000000  0.0000000  0.0000000 )


      isym =  9     120 deg rotation - cart. axis [1,1,1]        

 cryst.   s( 9) = (     0          1          0      )
                  (     0          0          1      )
                  (     1          0          0      )

 cart.    s( 9) = (  0.0000000  0.0000000  1.0000000 )
                  (  1.0000000  0.0000000  0.0000000 )
                  (  0.0000000  1.0000000  0.0000000 )


      isym = 10     120 deg rotation - cart. axis [-1,1,-1]      

 cryst.   s(10) = (     0         -1          0      )
                  (     0          0         -1      )
                  (     1          0          0      )

 cart.    s(10) = (  0.0000000  0.0000000  1.0000000 )
                  ( -1.0000000  0.0000000  0.0000000 )
                  (  0.0000000 -1.0000000  0.0000000 )


      isym = 11     120 deg rotation - cart. axis [1,-1,-1]      

 cryst.   s(11) = (     0         -1          0      )
                  (     0          0          1      )
                  (    -1          0          0      )

 cart.    s(11) = (  0.0000000  0.0000000 -1.0000000 )
                  ( -1.0000000  0.0000000  0.0000000 )
                  (  0.0000000  1.0000000  0.0000000 )


      isym = 12     120 deg rotation - cart. axis [-1,-1,1]      

 cryst.   s(12) = (     0          1          0      )
                  (     0          0         -1      )
                  (    -1          0          0      )

 cart.    s(12) = (  0.0000000  0.0000000 -1.0000000 )
                  (  1.0000000  0.0000000  0.0000000 )
                  (  0.0000000 -1.0000000  0.0000000 )


      isym = 13     inv. 180 deg rotation - cart. axis [1,1,0]   

 cryst.   s(13) = (     0         -1          0      )
                  (    -1          0          0      )
                  (     0          0          1      )

 cart.    s(13) = (  0.0000000 -1.0000000  0.0000000 )
                  ( -1.0000000  0.0000000  0.0000000 )
                  (  0.0000000  0.0000000  1.0000000 )


      isym = 14     inv. 180 deg rotation - cart. axis [1,-1,0]  

 cryst.   s(14) = (     0          1          0      )
                  (     1          0          0      )
                  (     0          0          1      )

 cart.    s(14) = (  0.0000000  1.0000000  0.0000000 )
                  (  1.0000000  0.0000000  0.0000000 )
                  (  0.0000000  0.0000000  1.0000000 )


      isym = 15     inv.  90 deg rotation - cart. axis [0,0,-1]  

 cryst.   s(15) = (     0          1          0      )
                  (    -1          0          0      )
                  (     0          0         -1      )

 cart.    s(15) = (  0.0000000 -1.0000000  0.0000000 )
                  (  1.0000000  0.0000000  0.0000000 )
                  (  0.0000000  0.0000000 -1.0000000 )


      isym = 16     inv.  90 deg rotation - cart. axis [0,0,1]   

 cryst.   s(16) = (     0         -1          0      )
                  (     1          0          0      )
                  (     0          0         -1      )

 cart.    s(16) = (  0.0000000  1.0000000  0.0000000 )
                  ( -1.0000000  0.0000000  0.0000000 )
                  (  0.0000000  0.0000000 -1.0000000 )


      isym = 17     inv. 180 deg rotation - cart. axis [1,0,1]   

 cryst.   s(17) = (     0          0         -1      )
                  (     0          1          0      )
                  (    -1          0          0      )

 cart.    s(17) = (  0.0000000  0.0000000 -1.0000000 )
                  (  0.0000000  1.0000000  0.0000000 )
                  ( -1.0000000  0.0000000  0.0000000 )


      isym = 18     inv. 180 deg rotation - cart. axis [-1,0,1]  

 cryst.   s(18) = (     0          0          1      )
                  (     0          1          0      )
                  (     1          0          0      )

 cart.    s(18) = (  0.0000000  0.0000000  1.0000000 )
                  (  0.0000000  1.0000000  0.0000000 )
                  (  1.0000000  0.0000000  0.0000000 )


      isym = 19     inv.  90 deg rotation - cart. axis [0,1,0]   

 cryst.   s(19) = (     0          0          1      )
                  (     0         -1          0      )
                  (    -1          0          0      )

 cart.    s(19) = (  0.0000000  0.0000000 -1.0000000 )
                  (  0.0000000 -1.0000000  0.0000000 )
                  (  1.0000000  0.0000000  0.0000000 )


      isym = 20     inv.  90 deg rotation - cart. axis [0,-1,0]  

 cryst.   s(20) = (     0          0         -1      )
                  (     0         -1          0      )
                  (     1          0          0      )

 cart.    s(20) = (  0.0000000  0.0000000  1.0000000 )
                  (  0.0000000 -1.0000000  0.0000000 )
                  ( -1.0000000  0.0000000  0.0000000 )


      isym = 21     inv. 180 deg rotation - cart. axis [0,1,1]   

 cryst.   s(21) = (     1          0          0      )
                  (     0          0         -1      )
                  (     0         -1          0      )

 cart.    s(21) = (  1.0000000  0.0000000  0.0000000 )
                  (  0.0000000  0.0000000 -1.0000000 )
                  (  0.0000000 -1.0000000  0.0000000 )


      isym = 22     inv. 180 deg rotation - cart. axis [0,1,-1]  

 cryst.   s(22) = (     1          0          0      )
                  (     0          0          1      )
                  (     0          1          0      )

 cart.    s(22) = (  1.0000000  0.0000000  0.0000000 )
                  (  0.0000000  0.0000000  1.0000000 )
                  (  0.0000000  1.0000000  0.0000000 )


      isym = 23     inv.  90 deg rotation - cart. axis [-1,0,0]  

 cryst.   s(23) = (    -1          0          0      )
                  (     0          0          1      )
                  (     0         -1          0      )

 cart.    s(23) = ( -1.0000000  0.0000000  0.0000000 )
                  (  0.0000000  0.0000000 -1.0000000 )
                  (  0.0000000  1.0000000  0.0000000 )


      isym = 24     inv.  90 deg rotation - cart. axis [1,0,0]   

 cryst.   s(24) = (    -1          0          0      )
                  (     0          0         -1      )
                  (     0          1          0      )

 cart.    s(24) = ( -1.0000000  0.0000000  0.0000000 )
                  (  0.0000000  0.0000000  1.0000000 )
                  (  0.0000000 -1.0000000  0.0000000 )


     point group T_d (-43m) 
     there are  5 classes
     the character table:

       E     8C3   3C2   6S4   6s_d 
A_1    1.00  1.00  1.00  1.00  1.00
A_2    1.00  1.00  1.00 -1.00 -1.00
E      2.00 -1.00  2.00  0.00  0.00
T_1    3.00  0.00 -1.00  1.00 -1.00
T_2    3.00  0.00 -1.00 -1.00  1.00

     the symmetry operations in each class and the name of the first element:

     E        1
          identity                                               
     8C3      5    7    8    6   12    9   10   11
          120 deg rotation - cart. axis [-1,-1,-1]               
     3C2      2    3    4
          180 deg rotation - cart. axis [0,0,1]                  
     6S4     15   16   20   19   23   24
          inv.  90 deg rotation - cart. axis [0,0,-1]            
     6s_d    13   14   17   18   21   22
          inv. 180 deg rotation - cart. axis [1,1,0]             

   Cartesian axes

     site n.     atom                  positions (alat units)
         1           As  tau(   1) = (   0.0000000   0.0000000   0.0000000  )
         2           In  tau(   2) = (   0.0000000   0.0000000   0.5000000  )
         3           In  tau(   3) = (   0.0000000   0.5000000   0.0000000  )
         4           In  tau(   4) = (   0.0000000   0.5000000   0.5000000  )
         5           In  tau(   5) = (   0.5000000   0.0000000   0.0000000  )
         6           In  tau(   6) = (   0.5000000   0.0000000   0.5000000  )
         7           In  tau(   7) = (   0.5000000   0.5000000   0.0000000  )
         8           In  tau(   8) = (   0.5000000   0.5000000   0.5000000  )
         9           In  tau(   9) = (   0.0000000   0.2500000   0.2500000  )
        10           In  tau(  10) = (   0.0000000   0.2500000   0.7500000  )
        11           In  tau(  11) = (   0.0000000   0.7500000   0.2500000  )
        12           In  tau(  12) = (   0.0000000   0.7500000   0.7500000  )
        13           In  tau(  13) = (   0.5000000   0.2500000   0.2500000  )
        14           In  tau(  14) = (   0.5000000   0.2500000   0.7500000  )
        15           In  tau(  15) = (   0.5000000   0.7500000   0.2500000  )
        16           In  tau(  16) = (   0.5000000   0.7500000   0.7500000  )
        17           In  tau(  17) = (   0.2500000   0.0000000   0.2500000  )
        18           In  tau(  18) = (   0.2500000   0.0000000   0.7500000  )
        19           In  tau(  19) = (   0.2500000   0.5000000   0.2500000  )
        20           In  tau(  20) = (   0.2500000   0.5000000   0.7500000  )
        21           In  tau(  21) = (   0.7500000   0.0000000   0.2500000  )
        22           In  tau(  22) = (   0.7500000   0.0000000   0.7500000  )
        23           In  tau(  23) = (   0.7500000   0.5000000   0.2500000  )
        24           In  tau(  24) = (   0.7500000   0.5000000   0.7500000  )
        25           In  tau(  25) = (   0.2500000   0.2500000   0.0000000  )
        26           In  tau(  26) = (   0.2500000   0.2500000   0.5000000  )
        27           In  tau(  27) = (   0.2500000   0.7500000   0.0000000  )
        28           In  tau(  28) = (   0.2500000   0.7500000   0.5000000  )
        29           In  tau(  29) = (   0.7500000   0.2500000   0.0000000  )
        30           In  tau(  30) = (   0.7500000   0.2500000   0.5000000  )
        31           In  tau(  31) = (   0.7500000   0.7500000   0.0000000  )
        32           In  tau(  32) = (   0.7500000   0.7500000   0.5000000  )
        33           As  tau(  33) = (   0.3750000   0.3750000   0.3750000  )
        34           As  tau(  34) = (   0.3750000   0.3750000   0.8750000  )
        35           As  tau(  35) = (   0.3750000   0.8750000   0.3750000  )
        36           As  tau(  36) = (   0.3750000   0.8750000   0.8750000  )
        37           As  tau(  37) = (   0.8750000   0.3750000   0.3750000  )
        38           As  tau(  38) = (   0.8750000   0.3750000   0.8750000  )
        39           As  tau(  39) = (   0.8750000   0.8750000   0.3750000  )
        40           As  tau(  40) = (   0.8750000   0.8750000   0.8750000  )
        41           As  tau(  41) = (   0.3750000   0.1250000   0.1250000  )
        42           As  tau(  42) = (   0.3750000   0.1250000   0.6250000  )
        43           As  tau(  43) = (   0.3750000   0.6250000   0.1250000  )
        44           As  tau(  44) = (   0.3750000   0.6250000   0.6250000  )
        45           As  tau(  45) = (   0.8750000   0.1250000   0.1250000  )
        46           As  tau(  46) = (   0.8750000   0.1250000   0.6250000  )
        47           As  tau(  47) = (   0.8750000   0.6250000   0.1250000  )
        48           As  tau(  48) = (   0.8750000   0.6250000   0.6250000  )
        49           As  tau(  49) = (   0.1250000   0.3750000   0.1250000  )
        50           As  tau(  50) = (   0.1250000   0.3750000   0.6250000  )
        51           As  tau(  51) = (   0.1250000   0.8750000   0.1250000  )
        52           As  tau(  52) = (   0.1250000   0.8750000   0.6250000  )
        53           As  tau(  53) = (   0.6250000   0.3750000   0.1250000  )
        54           As  tau(  54) = (   0.6250000   0.3750000   0.6250000  )
        55           As  tau(  55) = (   0.6250000   0.8750000   0.1250000  )
        56           As  tau(  56) = (   0.6250000   0.8750000   0.6250000  )
        57           As  tau(  57) = (   0.1250000   0.1250000   0.3750000  )
        58           As  tau(  58) = (   0.1250000   0.1250000   0.8750000  )
        59           As  tau(  59) = (   0.1250000   0.6250000   0.3750000  )
        60           As  tau(  60) = (   0.1250000   0.6250000   0.8750000  )
        61           As  tau(  61) = (   0.6250000   0.1250000   0.3750000  )
        62           As  tau(  62) = (   0.6250000   0.1250000   0.8750000  )
        63           As  tau(  63) = (   0.6250000   0.6250000   0.3750000  )
        64           As  tau(  64) = (   0.6250000   0.6250000   0.8750000  )

   Crystallographic axes

     site n.     atom                  positions (cryst. coord.)
         1           As  tau(   1) = (  0.0000000  0.0000000  0.0000000  )
         2           In  tau(   2) = (  0.0000000  0.0000000  0.5000000  )
         3           In  tau(   3) = (  0.0000000  0.5000000  0.0000000  )
         4           In  tau(   4) = (  0.0000000  0.5000000  0.5000000  )
         5           In  tau(   5) = (  0.5000000  0.0000000  0.0000000  )
         6           In  tau(   6) = (  0.5000000  0.0000000  0.5000000  )
         7           In  tau(   7) = (  0.5000000  0.5000000  0.0000000  )
         8           In  tau(   8) = (  0.5000000  0.5000000  0.5000000  )
         9           In  tau(   9) = (  0.0000000  0.2500000  0.2500000  )
        10           In  tau(  10) = (  0.0000000  0.2500000  0.7500000  )
        11           In  tau(  11) = (  0.0000000  0.7500000  0.2500000  )
        12           In  tau(  12) = (  0.0000000  0.7500000  0.7500000  )
        13           In  tau(  13) = (  0.5000000  0.2500000  0.2500000  )
        14           In  tau(  14) = (  0.5000000  0.2500000  0.7500000  )
        15           In  tau(  15) = (  0.5000000  0.7500000  0.2500000  )
        16           In  tau(  16) = (  0.5000000  0.7500000  0.7500000  )
        17           In  tau(  17) = (  0.2500000  0.0000000  0.2500000  )
        18           In  tau(  18) = (  0.2500000  0.0000000  0.7500000  )
        19           In  tau(  19) = (  0.2500000  0.5000000  0.2500000  )
        20           In  tau(  20) = (  0.2500000  0.5000000  0.7500000  )
        21           In  tau(  21) = (  0.7500000  0.0000000  0.2500000  )
        22           In  tau(  22) = (  0.7500000  0.0000000  0.7500000  )
        23           In  tau(  23) = (  0.7500000  0.5000000  0.2500000  )
        24           In  tau(  24) = (  0.7500000  0.5000000  0.7500000  )
        25           In  tau(  25) = (  0.2500000  0.2500000  0.0000000  )
        26           In  tau(  26) = (  0.2500000  0.2500000  0.5000000  )
        27           In  tau(  27) = (  0.2500000  0.7500000  0.0000000  )
        28           In  tau(  28) = (  0.2500000  0.7500000  0.5000000  )
        29           In  tau(  29) = (  0.7500000  0.2500000  0.0000000  )
        30           In  tau(  30) = (  0.7500000  0.2500000  0.5000000  )
        31           In  tau(  31) = (  0.7500000  0.7500000  0.0000000  )
        32           In  tau(  32) = (  0.7500000  0.7500000  0.5000000  )
        33           As  tau(  33) = (  0.3750000  0.3750000  0.3750000  )
        34           As  tau(  34) = (  0.3750000  0.3750000  0.8750000  )
        35           As  tau(  35) = (  0.3750000  0.8750000  0.3750000  )
        36           As  tau(  36) = (  0.3750000  0.8750000  0.8750000  )
        37           As  tau(  37) = (  0.8750000  0.3750000  0.3750000  )
        38           As  tau(  38) = (  0.8750000  0.3750000  0.8750000  )
        39           As  tau(  39) = (  0.8750000  0.8750000  0.3750000  )
        40           As  tau(  40) = (  0.8750000  0.8750000  0.8750000  )
        41           As  tau(  41) = (  0.3750000  0.1250000  0.1250000  )
        42           As  tau(  42) = (  0.3750000  0.1250000  0.6250000  )
        43           As  tau(  43) = (  0.3750000  0.6250000  0.1250000  )
        44           As  tau(  44) = (  0.3750000  0.6250000  0.6250000  )
        45           As  tau(  45) = (  0.8750000  0.1250000  0.1250000  )
        46           As  tau(  46) = (  0.8750000  0.1250000  0.6250000  )
        47           As  tau(  47) = (  0.8750000  0.6250000  0.1250000  )
        48           As  tau(  48) = (  0.8750000  0.6250000  0.6250000  )
        49           As  tau(  49) = (  0.1250000  0.3750000  0.1250000  )
        50           As  tau(  50) = (  0.1250000  0.3750000  0.6250000  )
        51           As  tau(  51) = (  0.1250000  0.8750000  0.1250000  )
        52           As  tau(  52) = (  0.1250000  0.8750000  0.6250000  )
        53           As  tau(  53) = (  0.6250000  0.3750000  0.1250000  )
        54           As  tau(  54) = (  0.6250000  0.3750000  0.6250000  )
        55           As  tau(  55) = (  0.6250000  0.8750000  0.1250000  )
        56           As  tau(  56) = (  0.6250000  0.8750000  0.6250000  )
        57           As  tau(  57) = (  0.1250000  0.1250000  0.3750000  )
        58           As  tau(  58) = (  0.1250000  0.1250000  0.8750000  )
        59           As  tau(  59) = (  0.1250000  0.6250000  0.3750000  )
        60           As  tau(  60) = (  0.1250000  0.6250000  0.8750000  )
        61           As  tau(  61) = (  0.6250000  0.1250000  0.3750000  )
        62           As  tau(  62) = (  0.6250000  0.1250000  0.8750000  )
        63           As  tau(  63) = (  0.6250000  0.6250000  0.3750000  )
        64           As  tau(  64) = (  0.6250000  0.6250000  0.8750000  )

     number of k points=     4  Gaussian smearing, width (Ry)=  0.0050
                       cart. coord. in units 2pi/alat
        k(    1) = (   0.0000000   0.0000000   0.0000000), wk =   0.1250000
        k(    2) = (   0.0000000   0.0000000  -0.5000000), wk =   0.3750000
        k(    3) = (   0.0000000  -0.5000000  -0.5000000), wk =   0.3750000
        k(    4) = (  -0.5000000  -0.5000000  -0.5000000), wk =   0.1250000

                       cryst. coord.
        k(    1) = (   0.0000000   0.0000000   0.0000000), wk =   0.1250000
        k(    2) = (   0.0000000   0.0000000  -0.5000000), wk =   0.3750000
        k(    3) = (   0.0000000  -0.5000000  -0.5000000), wk =   0.3750000
        k(    4) = (  -0.5000000  -0.5000000  -0.5000000), wk =   0.1250000

     Dense  grid:   201485 G-vectors     FFT dimensions: (  75,  75,  75)

     Dynamical RAM for                 wfc:      12.01 MB

     Dynamical RAM for     wfc (w. buffer):     108.08 MB

     Dynamical RAM for           str. fact:       0.38 MB

     Dynamical RAM for           local pot:       0.00 MB

     Dynamical RAM for          nlocal pot:      27.67 MB

     Dynamical RAM for                qrad:       5.83 MB

     Dynamical RAM for          rho,v,vnew:       2.44 MB

     Dynamical RAM for               rhoin:       0.81 MB

     Dynamical RAM for            rho*nmix:       6.15 MB

     Dynamical RAM for           G-vectors:       0.82 MB

     Dynamical RAM for          h,s,v(r/c):     183.11 MB

     Dynamical RAM for          <psi|beta>:       8.79 MB

     Dynamical RAM for                 psi:      48.03 MB

     Dynamical RAM for                hpsi:      48.03 MB

     Dynamical RAM for                spsi:      48.03 MB

     Dynamical RAM for      wfcinit/wfcrot:      29.74 MB

     Dynamical RAM for           addusdens:      42.27 MB

     Dynamical RAM for          addusforce:      72.94 MB

     Estimated static dynamical RAM per process >     154.05 MB

     Estimated max dynamical RAM per process >     490.05 MB

     Estimated total dynamical RAM >       7.66 GB
     Generating pointlists ...
     new r_m :   0.0893 (alat units)  2.0410 (a.u.) for type    1
     new r_m :   0.0893 (alat units)  2.0410 (a.u.) for type    2

     Initial potential from superposition of free atoms

     starting charge  521.49236, renormalised to  568.00000
     Starting wfcs are random

     total cpu time spent up to now is       10.2 secs

     Self-consistent Calculation

     iteration #  1     ecut=    25.00 Ry     beta= 0.70
     Davidson diagonalization with overlap
     ethr =  1.00E-02,  avg # of iterations =  6.1

     total cpu time spent up to now is      198.8 secs

     total energy              =   -5400.72512918 Ry
     Harris-Foulkes estimate   =   -5472.97282015 Ry
     estimated scf accuracy    <      84.76963402 Ry

     total magnetization       =    -0.00 Bohr mag/cell
     absolute magnetization    =     0.05 Bohr mag/cell

     iteration #  2     ecut=    25.00 Ry     beta= 0.70
     Davidson diagonalization with overlap
     ethr =  1.00E-02,  avg # of iterations =  6.0

     total cpu time spent up to now is      359.2 secs

     total energy              =   -5338.54499442 Ry
     Harris-Foulkes estimate   =   -5477.10081804 Ry
     estimated scf accuracy    <     393.85588056 Ry

     total magnetization       =    -0.00 Bohr mag/cell
     absolute magnetization    =     0.02 Bohr mag/cell

     iteration #  3     ecut=    25.00 Ry     beta= 0.70
     Davidson diagonalization with overlap
     ethr =  1.00E-02,  avg # of iterations =  3.4

     total cpu time spent up to now is      437.9 secs

     total energy              =   -5400.12177835 Ry
     Harris-Foulkes estimate   =   -5492.22680556 Ry
     estimated scf accuracy    <     572.82890854 Ry

     total magnetization       =    -0.00 Bohr mag/cell
     absolute magnetization    =     0.01 Bohr mag/cell

     iteration #  4     ecut=    25.00 Ry     beta= 0.70
     Davidson diagonalization with overlap
     ethr =  1.00E-02,  avg # of iterations =  3.0

     total cpu time spent up to now is      494.6 secs

     total energy              =   -5444.63749502 Ry
     Harris-Foulkes estimate   =   -5450.98743845 Ry
     estimated scf accuracy    <      17.71861111 Ry

     total magnetization       =    -0.00 Bohr mag/cell
     absolute magnetization    =     0.01 Bohr mag/cell

     iteration #  5     ecut=    25.00 Ry     beta= 0.70
     Davidson diagonalization with overlap
     ethr =  3.12E-03,  avg # of iterations =  3.8

     total cpu time spent up to now is      546.9 secs

     total energy              =   -5445.84669790 Ry
     Harris-Foulkes estimate   =   -5446.68361289 Ry
     estimated scf accuracy    <       3.74723801 Ry

     total magnetization       =    -0.00 Bohr mag/cell
     absolute magnetization    =     0.00 Bohr mag/cell

     iteration #  6     ecut=    25.00 Ry     beta= 0.70
     Davidson diagonalization with overlap
     ethr =  6.60E-04,  avg # of iterations =  4.5

     total cpu time spent up to now is      604.0 secs

     total energy              =   -5445.56223584 Ry
     Harris-Foulkes estimate   =   -5446.08387688 Ry
     estimated scf accuracy    <       2.89601135 Ry

     total magnetization       =    -0.00 Bohr mag/cell
     absolute magnetization    =     0.00 Bohr mag/cell

     iteration #  7     ecut=    25.00 Ry     beta= 0.70
     Davidson diagonalization with overlap
     ethr =  5.10E-04,  avg # of iterations =  3.1

     total cpu time spent up to now is      649.5 secs

     total energy              =   -5445.40511031 Ry
     Harris-Foulkes estimate   =   -5445.68949961 Ry
     estimated scf accuracy    <       1.37840962 Ry

     total magnetization       =    -0.00 Bohr mag/cell
     absolute magnetization    =     0.00 Bohr mag/cell

     iteration #  8     ecut=    25.00 Ry     beta= 0.70
     Davidson diagonalization with overlap
     ethr =  2.43E-04,  avg # of iterations =  2.0

     total cpu time spent up to now is      686.6 secs

     total energy              =   -5445.22601451 Ry
     Harris-Foulkes estimate   =   -5445.43361387 Ry
     estimated scf accuracy    <       0.76422684 Ry

     total magnetization       =    -0.00 Bohr mag/cell
     absolute magnetization    =     0.00 Bohr mag/cell

     iteration #  9     ecut=    25.00 Ry     beta= 0.70
     Davidson diagonalization with overlap
     ethr =  1.35E-04,  avg # of iterations =  4.1

     total cpu time spent up to now is      739.2 secs

     total energy              =   -5445.14609583 Ry
     Harris-Foulkes estimate   =   -5445.25218562 Ry
     estimated scf accuracy    <       0.30716721 Ry

     total magnetization       =    -0.00 Bohr mag/cell
     absolute magnetization    =     0.00 Bohr mag/cell

     iteration # 10     ecut=    25.00 Ry     beta= 0.70
     Davidson diagonalization with overlap
     ethr =  5.41E-05,  avg # of iterations =  8.2

     total cpu time spent up to now is      841.3 secs

     total energy              =   -5445.15038338 Ry
     Harris-Foulkes estimate   =   -5445.16753285 Ry
     estimated scf accuracy    <       0.06251987 Ry

     total magnetization       =    -0.00 Bohr mag/cell
     absolute magnetization    =     0.00 Bohr mag/cell

     iteration # 11     ecut=    25.00 Ry     beta= 0.70
     Davidson diagonalization with overlap
     ethr =  1.10E-05,  avg # of iterations = 10.8

     total cpu time spent up to now is      962.7 secs

     total energy              =   -5445.15137190 Ry
     Harris-Foulkes estimate   =   -5445.15478679 Ry
     estimated scf accuracy    <       0.01391922 Ry

     total magnetization       =    -0.00 Bohr mag/cell
     absolute magnetization    =     0.00 Bohr mag/cell

     iteration # 12     ecut=    25.00 Ry     beta= 0.70
     Davidson diagonalization with overlap
     ethr =  2.45E-06,  avg # of iterations =  8.1

     total cpu time spent up to now is     1065.0 secs

     total energy              =   -5445.15216057 Ry
     Harris-Foulkes estimate   =   -5445.15260937 Ry
     estimated scf accuracy    <       0.00126108 Ry

     total magnetization       =    -0.00 Bohr mag/cell
     absolute magnetization    =     0.00 Bohr mag/cell

     iteration # 13     ecut=    25.00 Ry     beta= 0.70
     Davidson diagonalization with overlap
     ethr =  2.22E-07,  avg # of iterations =  2.0

     total cpu time spent up to now is     1103.0 secs

     total energy              =   -5445.15238544 Ry
     Harris-Foulkes estimate   =   -5445.15241304 Ry
     estimated scf accuracy    <       0.00006696 Ry

     total magnetization       =    -0.00 Bohr mag/cell
     absolute magnetization    =     0.00 Bohr mag/cell

     iteration # 14     ecut=    25.00 Ry     beta= 0.70
     Davidson diagonalization with overlap
     ethr =  1.18E-08,  avg # of iterations =  3.0

     total cpu time spent up to now is     1157.2 secs

     total energy              =   -5445.15240416 Ry
     Harris-Foulkes estimate   =   -5445.15240692 Ry
     estimated scf accuracy    <       0.00000550 Ry

     total magnetization       =    -0.00 Bohr mag/cell
     absolute magnetization    =     0.00 Bohr mag/cell

     iteration # 15     ecut=    25.00 Ry     beta= 0.70
     Davidson diagonalization with overlap
     ethr =  9.69E-10,  avg # of iterations =  2.5

     total cpu time spent up to now is     1205.1 secs

     total energy              =   -5445.15240557 Ry
     Harris-Foulkes estimate   =   -5445.15240591 Ry
     estimated scf accuracy    <       0.00000065 Ry

     total magnetization       =    -0.00 Bohr mag/cell
     absolute magnetization    =     0.00 Bohr mag/cell

     iteration # 16     ecut=    25.00 Ry     beta= 0.70
     Davidson diagonalization with overlap
     ethr =  1.14E-10,  avg # of iterations =  2.0

     total cpu time spent up to now is     1252.3 secs

     total energy              =   -5445.15240573 Ry
     Harris-Foulkes estimate   =   -5445.15240585 Ry
     estimated scf accuracy    <       0.00000029 Ry

     total magnetization       =    -0.00 Bohr mag/cell
     absolute magnetization    =     0.00 Bohr mag/cell

     iteration # 17     ecut=    25.00 Ry     beta= 0.70
     Davidson diagonalization with overlap
     ethr =  5.09E-11,  avg # of iterations =  2.0
 
     Magnetic moment per site:
     atom:    1    charge:    2.9241    magn:   -0.0000    constr:    0.0000
     atom:    2    charge:   10.5670    magn:   -0.0000    constr:    0.0000
     atom:    3    charge:   10.5670    magn:   -0.0000    constr:    0.0000
     atom:    4    charge:   10.5681    magn:   -0.0000    constr:    0.0000
     atom:    5    charge:   10.5670    magn:   -0.0000    constr:    0.0000
     atom:    6    charge:   10.5681    magn:   -0.0000    constr:    0.0000
     atom:    7    charge:   10.5681    magn:   -0.0000    constr:    0.0000
     atom:    8    charge:   10.5709    magn:    0.0000    constr:    0.0000
     atom:    9    charge:   10.5655    magn:   -0.0000    constr:    0.0000
     atom:   10    charge:   10.5655    magn:   -0.0000    constr:    0.0000
     atom:   11    charge:   10.5655    magn:   -0.0000    constr:    0.0000
     atom:   12    charge:   10.5655    magn:   -0.0000    constr:    0.0000
     atom:   13    charge:   10.5672    magn:    0.0000    constr:    0.0000
     atom:   14    charge:   10.5672    magn:    0.0000    constr:    0.0000
     atom:   15    charge:   10.5672    magn:    0.0000    constr:    0.0000
     atom:   16    charge:   10.5672    magn:    0.0000    constr:    0.0000
     atom:   17    charge:   10.5655    magn:   -0.0000    constr:    0.0000
     atom:   18    charge:   10.5655    magn:   -0.0000    constr:    0.0000
     atom:   19    charge:   10.5672    magn:    0.0000    constr:    0.0000
     atom:   20    charge:   10.5672    magn:    0.0000    constr:    0.0000
     atom:   21    charge:   10.5655    magn:   -0.0000    constr:    0.0000
     atom:   22    charge:   10.5655    magn:   -0.0000    constr:    0.0000
     atom:   23    charge:   10.5672    magn:    0.0000    constr:    0.0000
     atom:   24    charge:   10.5672    magn:    0.0000    constr:    0.0000
     atom:   25    charge:   10.5655    magn:   -0.0000    constr:    0.0000
     atom:   26    charge:   10.5672    magn:    0.0000    constr:    0.0000
     atom:   27    charge:   10.5655    magn:   -0.0000    constr:    0.0000
     atom:   28    charge:   10.5672    magn:    0.0000    constr:    0.0000
     atom:   29    charge:   10.5655    magn:   -0.0000    constr:    0.0000
     atom:   30    charge:   10.5672    magn:    0.0000    constr:    0.0000
     atom:   31    charge:   10.5655    magn:   -0.0000    constr:    0.0000
     atom:   32    charge:   10.5672    magn:    0.0000    constr:    0.0000
     atom:   33    charge:    3.1222    magn:   -0.0000    constr:    0.0000
     atom:   34    charge:    3.1229    magn:   -0.0000    constr:    0.0000
     atom:   35    charge:    3.1229    magn:   -0.0000    constr:    0.0000
     atom:   36    charge:    3.1251    magn:   -0.0000    constr:    0.0000
     atom:   37    charge:    3.1229    magn:   -0.0000    constr:    0.0000
     atom:   38    charge:    3.1251    magn:   -0.0000    constr:    0.0000
     atom:   39    charge:    3.1251    magn:   -0.0000    constr:    0.0000
     atom:   40    charge:    3.0928    magn:   -0.0000    constr:    0.0000
     atom:   41    charge:    3.1251    magn:   -0.0000    constr:    0.0000
     atom:   42    charge:    3.1229    magn:   -0.0000    constr:    0.0000
     atom:   43    charge:    3.1229    magn:   -0.0000    constr:    0.0000
     atom:   44    charge:    3.1222    magn:   -0.0000    constr:    0.0000
     atom:   45    charge:    3.0928    magn:   -0.0000    constr:    0.0000
     atom:   46    charge:    3.1251    magn:   -0.0000    constr:    0.0000
     atom:   47    charge:    3.1251    magn:   -0.0000    constr:    0.0000
     atom:   48    charge:    3.1229    magn:   -0.0000    constr:    0.0000
     atom:   49    charge:    3.1251    magn:   -0.0000    constr:    0.0000
     atom:   50    charge:    3.1229    magn:   -0.0000    constr:    0.0000
     atom:   51    charge:    3.0928    magn:   -0.0000    constr:    0.0000
     atom:   52    charge:    3.1251    magn:   -0.0000    constr:    0.0000
     atom:   53    charge:    3.1229    magn:   -0.0000    constr:    0.0000
     atom:   54    charge:    3.1222    magn:   -0.0000    constr:    0.0000
     atom:   55    charge:    3.1251    magn:   -0.0000    constr:    0.0000
     atom:   56    charge:    3.1229    magn:   -0.0000    constr:    0.0000
     atom:   57    charge:    3.1251    magn:   -0.0000    constr:    0.0000
     atom:   58    charge:    3.0928    magn:   -0.0000    constr:    0.0000
     atom:   59    charge:    3.1229    magn:   -0.0000    constr:    0.0000
     atom:   60    charge:    3.1251    magn:   -0.0000    constr:    0.0000
     atom:   61    charge:    3.1229    magn:   -0.0000    constr:    0.0000
     atom:   62    charge:    3.1251    magn:   -0.0000    constr:    0.0000
     atom:   63    charge:    3.1222    magn:   -0.0000    constr:    0.0000
     atom:   64    charge:    3.1229    magn:   -0.0000    constr:    0.0000

     total cpu time spent up to now is     1290.3 secs

     End of self-consistent calculation

 ------ SPIN UP ------------


          k = 0.0000 0.0000 0.0000 ( 25269 PWs)   bands (ev):

    -8.1928  -8.1928  -8.1928  -8.1309  -8.1110  -8.1110  -8.1054  -8.1054
    -8.1054  -8.1035  -8.1035  -8.1035  -8.0903  -8.0903  -8.0903  -8.0892
    -8.0891  -8.0891  -8.0861  -8.0861  -8.0861  -8.0835  -8.0835  -8.0835
    -8.0675  -8.0675  -8.0675  -8.0470  -8.0383  -8.0383  -8.0383  -7.9743
    -7.9743  -7.9743  -7.9723  -7.9723  -7.9723  -7.9647  -7.9647  -7.9647
    -7.9500  -7.9500  -7.9500  -7.9442  -7.9442  -7.9442  -7.9436  -7.9436
    -7.9422  -7.9392  -7.9392  -7.9392  -7.9389  -7.9389  -7.9375  -7.9375
    -7.9375  -7.9340  -7.9253  -7.9253  -7.9253  -7.9249  -7.9249  -7.9249
    -7.9193  -7.9193  -7.9193  -7.9177  -7.9177  -7.9173  -7.9173  -7.9173
    -7.9161  -7.9161  -7.9161  -7.9121  -7.8996  -7.8996  -7.8987  -7.8987
    -7.8987  -7.8957  -7.8957  -7.8957  -7.8924  -7.8924  -7.8924  -7.8895
    -7.8895  -7.8884  -7.8759  -7.8759  -7.8759  -7.8723  -7.8723  -7.8723
    -7.8683  -7.8683  -7.8683  -7.8673  -7.8673  -7.8673  -7.8625  -7.8625
    -7.8625  -7.8619  -7.8585  -7.8585  -7.8524  -7.8522  -7.8522  -7.8522
    -7.8518  -7.8518  -7.8518  -7.8448  -7.8448  -7.8448  -7.8427  -7.8427
    -7.8401  -7.8380  -7.8380  -7.8380  -7.8376  -7.8376  -7.8324  -7.8324
    -7.8324  -7.8277  -7.8277  -7.8277  -7.8269  -7.8229  -7.8229  -7.8205
    -7.8205  -7.8205  -7.8193  -7.8193  -7.8193  -7.8175  -7.8175  -7.8175
    -7.8144  -7.8117  -7.8117  -7.8094  -7.8077  -7.8077  -7.8026  -7.7986
    -7.7986  -7.7513  -7.7513  -5.9131  -5.2691  -4.6808  -4.6808  -4.6808
    -4.6453  -4.6453  -4.3737  -4.1710  -4.1710  -4.1710  -4.0570  -4.0570
    -4.0570  -4.0569  -4.0569  -4.0569  -4.0559  -4.0559  -3.9816  -3.9794
    -3.9794  -3.9794  -3.4807  -3.4807  -3.4807  -3.3947  -3.3947  -3.3947
    -3.3682  -3.3682  -3.3682  -2.5092   0.5511   0.5511   0.6005   0.6008
     0.6008   0.6008   0.6572   0.6979   0.6979   0.6979   0.7045   0.7045
     1.1100   1.3690   1.3690   1.3690   1.4194   1.4194   1.4194   1.4274
     1.4274   1.4274   1.4395   1.4395   2.4625   2.6280   2.6280   2.6280
     2.7046   2.7046   2.9770   2.9770   2.9770   3.4310   3.4310   3.4596
     3.4852   3.4852   3.4852   3.5275   3.5275   3.5275   3.5303   3.5628
     3.5628   3.5628   3.5664   3.5664   3.5682   3.5682   3.5682   3.5817
     3.5817   3.5817   4.0100   4.0100   4.0100   4.0938   4.0938   4.0938
     4.7218   4.7218   4.7218   4.9719   4.9719   4.9719   4.9980   4.9980
     4.9980   5.0039   5.0039   5.0039   5.2325   5.2325   5.2325   5.3596
     5.3596   5.3790   5.3790   5.3790   5.3925   5.3934   5.3934   5.3934
     5.4348   5.4348   5.4348   5.4399   5.4399   5.4449   5.4449   5.4449
     5.8290   6.4157   6.4157   6.4157   6.6149   7.2411   7.2411   7.2411
     7.7302   7.7302   7.7302   7.8118   8.2792   8.2792   8.2792   8.3974
     8.3974   8.5036   8.6145   8.6145   8.7216   8.8191   8.8191   8.8191
     8.9655   8.9655   8.9714   8.9714   8.9714   8.9730   8.9730   8.9730
     9.1258   9.1263   9.1263   9.1263   9.1372   9.1372   9.8395   9.8395
     9.8395  10.2669  10.4796  10.4796  10.4796  10.5972  10.5972  10.6139
    10.6139  10.6139  10.6573  10.6573  10.6573  10.6788  10.6788  10.6788
    11.0255  11.0255  11.0681  11.0681  11.0681  11.1773  11.1773  11.1773
    11.2571  11.3278  11.3278  11.3432  11.3432  11.3432  11.3551  11.3551
    11.3551  11.3686  11.3686  11.3686  11.3733  11.3733  11.3733  11.5423
    11.5423  11.5423  11.6327  11.6327  11.6327  11.6383  11.6946  11.6946
    11.6996  11.6996  11.6996  11.7611  11.7611  11.7611  11.8653  11.8653
    11.8742  11.8760  11.8760  11.8760  11.8794  11.8794  11.8794  12.3065
    12.3065  12.3065  12.3781  12.3781  12.4264  12.5223  12.5223  12.5223
    12.6285  12.6285  12.6285  12.6587  12.6587  12.6587  12.6632  12.6632
    12.6632  13.0322  13.0368  13.0368  13.0418  13.0418  13.0418  13.1530
    13.1530  13.1530  13.1781  13.6864  14.3064  14.3064  14.3504  14.3504
    14.3504  14.4727  14.4727  14.4727  14.4816  14.4852  14.4852  14.4852
    15.0416  15.1037  15.1037  15.1037  15.3512  15.3512  15.3512  15.4805
    15.4947  15.4947  15.6699  15.6699  15.6699  15.8547  15.8547  15.8547
    16.0245  16.0245  16.0936  16.0936  16.0936  16.1281  16.1314  16.1314
    16.1314  16.1466  16.1466  16.1911  16.1911  16.1911  16.2041  16.2041
    16.2108  16.6822  16.6822  16.7884  16.7884  16.7884  16.8149  16.8183
    16.8183  16.8183  16.8464  16.8464  16.8464  16.8890  17.1450  17.1450
    17.1956  17.1956  17.1956  17.2593  17.2593  17.2593  17.3435  17.3435
    17.6013  17.6013  17.6013  17.7209  17.9160  17.9160  17.9405  17.9405
    17.9405  17.9419  17.9419  17.9419  17.9819  17.9819  17.9819  17.9976
    17.9976  17.9977  18.0232  18.0232

     occupation numbers 
     1.0000   1.0000   1.0000   1.0000   1.0000   1.0000   1.0000   1.0000
     1.0000   1.0000   1.0000   1.0000   1.0000   1.0000   1.0000   1.0000
     1.0000   1.0000   1.0000   1.0000   1.0000   1.0000   1.0000   1.0000
     1.0000   1.0000   1.0000   1.0000   1.0000   1.0000   1.0000   1.0000
     1.0000   1.0000   1.0000   1.0000   1.0000   1.0000   1.0000   1.0000
     1.0000   1.0000   1.0000   1.0000   1.0000   1.0000   1.0000   1.0000
     1.0000   1.0000   1.0000   1.0000   1.0000   1.0000   1.0000   1.0000
     1.0000   1.0000   1.0000   1.0000   1.0000   1.0000   1.0000   1.0000
     1.0000   1.0000   1.0000   1.0000   1.0000   1.0000   1.0000   1.0000
     1.0000   1.0000   1.0000   1.0000   1.0000   1.0000   1.0000   1.0000
     1.0000   1.0000   1.0000   1.0000   1.0000   1.0000   1.0000   1.0000
     1.0000   1.0000   1.0000   1.0000   1.0000   1.0000   1.0000   1.0000
     1.0000   1.0000   1.0000   1.0000   1.0000   1.0000   1.0000   1.0000
     1.0000   1.0000   1.0000   1.0000   1.0000   1.0000   1.0000   1.0000
     1.0000   1.0000   1.0000   1.0000   1.0000   1.0000   1.0000   1.0000
     1.0000   1.0000   1.0000   1.0000   1.0000   1.0000   1.0000   1.0000
     1.0000   1.0000   1.0000   1.0000   1.0000   1.0000   1.0000   1.0000
     1.0000   1.0000   1.0000   1.0000   1.0000   1.0000   1.0000   1.0000
     1.0000   1.0000   1.0000   1.0000   1.0000   1.0000   1.0000   1.0000
     1.0000   1.0000   1.0000   1.0000   1.0000   1.0000   1.0000   1.0000
     1.0000   1.0000   1.0000   1.0000   1.0000   1.0000   1.0000   1.0000
     1.0000   1.0000   1.0000   1.0000   1.0000   1.0000   1.0000   1.0000
     1.0000   1.0000   1.0000   1.0000   1.0000   1.0000   1.0000   1.0000
     1.0000   1.0000   1.0000   1.0000   1.0000   1.0000   1.0000   1.0000
     1.0000   1.0000   1.0000   1.0000   1.0000   1.0000   1.0000   1.0000
     1.0000   1.0000   1.0000   1.0000   1.0000   1.0000   1.0000   1.0000
     1.0000   1.0000   1.0000   1.0000   1.0000   1.0000   1.0000   1.0000
     1.0000   1.0000   1.0000   1.0000   1.0000   1.0000   1.0000   1.0000
     1.0000   1.0000   1.0000   1.0000   1.0000   1.0000   1.0000   1.0000
     1.0000   1.0000   1.0000   1.0000   1.0000   1.0000   1.0000   1.0000
     1.0000   1.0000   1.0000   1.0000   1.0000   1.0000   1.0000   1.0000
     1.0000   1.0000   1.0000   1.0000   1.0000   1.0000   1.0000   1.0000
     1.0000   1.0000   1.0000   1.0000   1.0000   1.0000   1.0000   1.0000
     1.0000   1.0000   1.0000   1.0000   1.0000   1.0000   1.0000   1.0000
     1.0000   1.0000   1.0000   1.0000   1.0000   1.0000   1.0000   1.0000
     1.0000   1.0000   1.0000   1.0000   1.0000   0.0000   0.0000   0.0000
     0.0000   0.0000   0.0000   0.0000   0.0000   0.0000   0.0000   0.0000
     0.0000   0.0000   0.0000   0.0000   0.0000   0.0000   0.0000   0.0000
     0.0000   0.0000   0.0000   0.0000   0.0000   0.0000   0.0000   0.0000
     0.0000   0.0000   0.0000   0.0000   0.0000   0.0000   0.0000   0.0000
     0.0000   0.0000   0.0000   0.0000   0.0000   0.0000   0.0000   0.0000
     0.0000   0.0000   0.0000   0.0000   0.0000   0.0000   0.0000   0.0000
     0.0000   0.0000   0.0000   0.0000   0.0000   0.0000   0.0000   0.0000
     0.0000   0.0000   0.0000   0.0000   0.0000   0.0000   0.0000   0.0000
     0.0000   0.0000   0.0000   0.0000   0.0000   0.0000   0.0000   0.0000
     0.0000   0.0000   0.0000   0.0000   0.0000   0.0000   0.0000   0.0000
     0.0000   0.0000   0.0000   0.0000   0.0000   0.0000   0.0000   0.0000
     0.0000   0.0000   0.0000   0.0000   0.0000   0.0000   0.0000   0.0000
     0.0000   0.0000   0.0000   0.0000   0.0000   0.0000   0.0000   0.0000
     0.0000   0.0000   0.0000   0.0000   0.0000   0.0000   0.0000   0.0000
     0.0000   0.0000   0.0000   0.0000   0.0000   0.0000   0.0000   0.0000
     0.0000   0.0000   0.0000   0.0000   0.0000   0.0000   0.0000   0.0000
     0.0000   0.0000   0.0000   0.0000   0.0000   0.0000   0.0000   0.0000
     0.0000   0.0000   0.0000   0.0000   0.0000   0.0000   0.0000   0.0000
     0.0000   0.0000   0.0000   0.0000   0.0000   0.0000   0.0000   0.0000
     0.0000   0.0000   0.0000   0.0000   0.0000   0.0000   0.0000   0.0000
     0.0000   0.0000   0.0000   0.0000   0.0000   0.0000   0.0000   0.0000
     0.0000   0.0000   0.0000   0.0000   0.0000   0.0000   0.0000   0.0000
     0.0000   0.0000   0.0000   0.0000   0.0000   0.0000   0.0000   0.0000
     0.0000   0.0000   0.0000   0.0000   0.0000   0.0000   0.0000   0.0000
     0.0000   0.0000   0.0000   0.0000   0.0000   0.0000   0.0000   0.0000
     0.0000   0.0000   0.0000   0.0000   0.0000   0.0000   0.0000   0.0000
     0.0000   0.0000   0.0000   0.0000

          k = 0.0000 0.0000-0.5000 ( 25140 PWs)   bands (ev):

    -8.1691  -8.1626  -8.1343  -8.1343  -8.1331  -8.1331  -8.1190  -8.1031
    -8.1011  -8.1006  -8.1006  -8.0990  -8.0990  -8.0984  -8.0955  -8.0896
    -8.0862  -8.0862  -8.0861  -8.0846  -8.0806  -8.0803  -8.0803  -8.0769
    -8.0753  -8.0709  -8.0709  -8.0653  -8.0525  -8.0525  -7.9907  -7.9895
    -7.9677  -7.9677  -7.9654  -7.9654  -7.9546  -7.9546  -7.9515  -7.9496
    -7.9460  -7.9460  -7.9418  -7.9399  -7.9396  -7.9385  -7.9379  -7.9345
    -7.9309  -7.9309  -7.9295  -7.9289  -7.9289  -7.9285  -7.9272  -7.9272
    -7.9244  -7.9240  -7.9240  -7.9239  -7.9207  -7.9197  -7.9195  -7.9180
    -7.9180  -7.9151  -7.9129  -7.9129  -7.9126  -7.9080  -7.9080  -7.9030
    -7.8991  -7.8957  -7.8957  -7.8933  -7.8909  -7.8909  -7.8885  -7.8880
    -7.8838  -7.8838  -7.8827  -7.8795  -7.8773  -7.8764  -7.8764  -7.8706
    -7.8706  -7.8706  -7.8706  -7.8687  -7.8663  -7.8655  -7.8655  -7.8642
    -7.8636  -7.8624  -7.8624  -7.8612  -7.8582  -7.8568  -7.8567  -7.8550
    -7.8500  -7.8491  -7.8491  -7.8479  -7.8448  -7.8447  -7.8447  -7.8442
    -7.8430  -7.8430  -7.8405  -7.8401  -7.8373  -7.8368  -7.8368  -7.8366
    -7.8359  -7.8353  -7.8339  -7.8320  -7.8314  -7.8314  -7.8305  -7.8262
    -7.8249  -7.8224  -7.8224  -7.8216  -7.8206  -7.8206  -7.8194  -7.8193
    -7.8162  -7.8145  -7.8137  -7.8119  -7.8098  -7.8098  -7.8095  -7.8095
    -7.8079  -7.8038  -7.8025  -7.8022  -7.8019  -7.8019  -7.7991  -7.7940
    -7.7916  -7.7904  -7.7882  -5.8899  -5.2412  -5.0173  -4.5551  -4.5551
    -4.4952  -4.4847  -4.4748  -4.4745  -4.4745  -4.2002  -4.1154  -4.0829
    -4.0829  -4.0127  -4.0127  -4.0119  -4.0116  -3.9048  -3.8860  -3.6647
    -3.6543  -3.6543  -3.6436  -3.5878  -3.5788  -3.5781  -3.5781  -3.4397
    -3.4397  -3.3954  -3.3954  -2.4661   0.6183   0.6229   0.6366   0.6871
     0.8500   0.8500   0.8703   0.8720   0.8720   0.8784   0.8923   0.9001
     0.9359   0.9386   0.9386   0.9558   0.9558   0.9703   0.9706   1.2010
     1.2270   1.9401   2.1287   2.1287   2.2013   2.2082   2.2082   2.2192
     2.2212   2.8907   2.8907   2.8971   3.1609   3.1639   3.1899   3.1915
     3.1915   3.4422   3.5810   3.5810   3.7430   3.7526   3.7574   3.7911
     3.7911   4.0367   4.0367   4.0642   4.1458   4.3307   4.3307   4.3568
     4.3568   4.3814   4.3917   4.3969   4.3969   4.4101   4.4106   4.4244
     4.4244   4.4280   4.4339   4.4339   4.4376   4.4472   4.4498   4.4521
     4.4532   4.4532   4.4567   4.4586   4.4629   4.4629   4.4649   5.1603
     5.1603   5.1840   5.3124   5.3156   5.3249   5.3249   5.3424   5.3566
     5.3566   5.3913   5.4028   5.4217   5.4219   5.4258   5.4258   5.8552
     5.8552   5.8943   5.8943   6.7865   7.5828   8.0498   8.0741   8.0988
     8.0988   8.1531   8.1764   8.2839   8.2872   8.2872   8.2963   8.4240
     8.4240   8.6212   8.7381   8.7973   8.8201   8.8201   8.9973   8.9973
     9.1201   9.1902   9.1928   9.1928   9.2020   9.2178   9.2565   9.2593
     9.2864   9.3047   9.3047   9.3376   9.4779   9.5529   9.5637   9.5713
     9.5713   9.5773   9.5965   9.6002   9.6002   9.6297   9.6297   9.6322
     9.6336   9.6350   9.6405  10.2009  10.3873  10.3873  10.7590  10.8059
    10.8067  10.8326  10.8326  10.8799  10.8799  10.9433  10.9981  11.0300
    11.0300  11.0633  11.0665  11.0665  11.0667  11.0694  11.0694  11.1924
    11.1924  11.3009  11.3135  11.3145  11.4002  11.4034  11.4079  11.4079
    11.4099  11.4274  11.4274  11.4565  11.4607  11.4607  11.4612  11.4619
    11.4699  11.4864  11.4864  11.5056  11.5056  11.5084  11.5123  11.9381
    12.3339  12.3339  12.4044  12.4067  12.4067  12.4101  12.4178  12.9331
    12.9337  12.9337  12.9781  13.0586  13.0730  13.0730  13.0790  13.2774
    13.2774  13.6169  13.6677  13.6808  13.6808  13.7328  13.7328  13.7366
    13.7445  13.7445  13.7603  13.8764  13.8951  13.9621  13.9902  13.9916
    14.0292  14.0388  14.0388  14.0709  14.0709  14.0795  14.1187  14.1354
    14.1394  14.2020  14.2020  14.2684  14.2774  14.2774  14.2833  14.3009
    14.3066  14.3087  14.3107  14.4152  14.4152  14.4595  14.4595  14.8193
    14.9357  15.2085  15.2293  15.2386  15.2386  15.3409  15.3450  15.3452
    15.3477  15.3477  15.4534  15.4534  15.5280  15.5280  15.5541  15.5546
    15.5740  15.6674  15.9600  16.0230  16.0785  16.0798  16.0866  16.0965
    16.1701  16.1701  16.1731  16.1731  16.1854  16.2737  16.3262  16.3262
    16.3318  16.4309  16.4780  16.5399  16.5459  16.5459  16.5484  16.7022
    16.7707  16.7707  16.8915  16.9385  16.9889  16.9989  16.9989  17.0198
    17.0568  17.0568  17.0995  17.1359  17.1411  17.1416  17.1416  17.2708
    17.2708  17.3039  17.3039  17.4783  17.5341  17.7596  17.7597  17.8193
    17.9612  18.0602  18.0737  18.0738

     occupation numbers 
     1.0000   1.0000   1.0000   1.0000   1.0000   1.0000   1.0000   1.0000
     1.0000   1.0000   1.0000   1.0000   1.0000   1.0000   1.0000   1.0000
     1.0000   1.0000   1.0000   1.0000   1.0000   1.0000   1.0000   1.0000
     1.0000   1.0000   1.0000   1.0000   1.0000   1.0000   1.0000   1.0000
     1.0000   1.0000   1.0000   1.0000   1.0000   1.0000   1.0000   1.0000
     1.0000   1.0000   1.0000   1.0000   1.0000   1.0000   1.0000   1.0000
     1.0000   1.0000   1.0000   1.0000   1.0000   1.0000   1.0000   1.0000
     1.0000   1.0000   1.0000   1.0000   1.0000   1.0000   1.0000   1.0000
     1.0000   1.0000   1.0000   1.0000   1.0000   1.0000   1.0000   1.0000
     1.0000   1.0000   1.0000   1.0000   1.0000   1.0000   1.0000   1.0000
     1.0000   1.0000   1.0000   1.0000   1.0000   1.0000   1.0000   1.0000
     1.0000   1.0000   1.0000   1.0000   1.0000   1.0000   1.0000   1.0000
     1.0000   1.0000   1.0000   1.0000   1.0000   1.0000   1.0000   1.0000
     1.0000   1.0000   1.0000   1.0000   1.0000   1.0000   1.0000   1.0000
     1.0000   1.0000   1.0000   1.0000   1.0000   1.0000   1.0000   1.0000
     1.0000   1.0000   1.0000   1.0000   1.0000   1.0000   1.0000   1.0000
     1.0000   1.0000   1.0000   1.0000   1.0000   1.0000   1.0000   1.0000
     1.0000   1.0000   1.0000   1.0000   1.0000   1.0000   1.0000   1.0000
     1.0000   1.0000   1.0000   1.0000   1.0000   1.0000   1.0000   1.0000
     1.0000   1.0000   1.0000   1.0000   1.0000   1.0000   1.0000   1.0000
     1.0000   1.0000   1.0000   1.0000   1.0000   1.0000   1.0000   1.0000
     1.0000   1.0000   1.0000   1.0000   1.0000   1.0000   1.0000   1.0000
     1.0000   1.0000   1.0000   1.0000   1.0000   1.0000   1.0000   1.0000
     1.0000   1.0000   1.0000   1.0000   1.0000   1.0000   1.0000   1.0000
     1.0000   1.0000   1.0000   1.0000   1.0000   1.0000   1.0000   1.0000
     1.0000   1.0000   1.0000   1.0000   1.0000   1.0000   1.0000   1.0000
     1.0000   1.0000   1.0000   1.0000   1.0000   1.0000   1.0000   1.0000
     1.0000   1.0000   1.0000   1.0000   1.0000   1.0000   1.0000   1.0000
     1.0000   1.0000   1.0000   1.0000   1.0000   1.0000   1.0000   1.0000
     1.0000   1.0000   1.0000   1.0000   1.0000   1.0000   1.0000   1.0000
     1.0000   1.0000   1.0000   1.0000   1.0000   1.0000   1.0000   1.0000
     1.0000   1.0000   1.0000   1.0000   1.0000   1.0000   1.0000   1.0000
     1.0000   1.0000   1.0000   1.0000   1.0000   1.0000   1.0000   1.0000
     1.0000   1.0000   1.0000   1.0000   1.0000   1.0000   1.0000   1.0000
     1.0000   1.0000   1.0000   1.0000   1.0000   1.0000   1.0000   1.0000
     1.0000   1.0000   1.0000   0.8520   0.0000   0.0000   0.0000   0.0000
     0.0000   0.0000   0.0000   0.0000   0.0000   0.0000   0.0000   0.0000
     0.0000   0.0000   0.0000   0.0000   0.0000   0.0000   0.0000   0.0000
     0.0000   0.0000   0.0000   0.0000   0.0000   0.0000   0.0000   0.0000
     0.0000   0.0000   0.0000   0.0000   0.0000   0.0000   0.0000   0.0000
     0.0000   0.0000   0.0000   0.0000   0.0000   0.0000   0.0000   0.0000
     0.0000   0.0000   0.0000   0.0000   0.0000   0.0000   0.0000   0.0000
     0.0000   0.0000   0.0000   0.0000   0.0000   0.0000   0.0000   0.0000
     0.0000   0.0000   0.0000   0.0000   0.0000   0.0000   0.0000   0.0000
     0.0000   0.0000   0.0000   0.0000   0.0000   0.0000   0.0000   0.0000
     0.0000   0.0000   0.0000   0.0000   0.0000   0.0000   0.0000   0.0000
     0.0000   0.0000   0.0000   0.0000   0.0000   0.0000   0.0000   0.0000
     0.0000   0.0000   0.0000   0.0000   0.0000   0.0000   0.0000   0.0000
     0.0000   0.0000   0.0000   0.0000   0.0000   0.0000   0.0000   0.0000
     0.0000   0.0000   0.0000   0.0000   0.0000   0.0000   0.0000   0.0000
     0.0000   0.0000   0.0000   0.0000   0.0000   0.0000   0.0000   0.0000
     0.0000   0.0000   0.0000   0.0000   0.0000   0.0000   0.0000   0.0000
     0.0000   0.0000   0.0000   0.0000   0.0000   0.0000   0.0000   0.0000
     0.0000   0.0000   0.0000   0.0000   0.0000   0.0000   0.0000   0.0000
     0.0000   0.0000   0.0000   0.0000   0.0000   0.0000   0.0000   0.0000
     0.0000   0.0000   0.0000   0.0000   0.0000   0.0000   0.0000   0.0000
     0.0000   0.0000   0.0000   0.0000   0.0000   0.0000   0.0000   0.0000
     0.0000   0.0000   0.0000   0.0000   0.0000   0.0000   0.0000   0.0000
     0.0000   0.0000   0.0000   0.0000   0.0000   0.0000   0.0000   0.0000
     0.0000   0.0000   0.0000   0.0000   0.0000   0.0000   0.0000   0.0000
     0.0000   0.0000   0.0000   0.0000   0.0000   0.0000   0.0000   0.0000
     0.0000   0.0000   0.0000   0.0000   0.0000   0.0000   0.0000   0.0000
     0.0000   0.0000   0.0000   0.0000

          k = 0.0000-0.5000-0.5000 ( 25244 PWs)   bands (ev):

    -8.1490  -8.1396  -8.1381  -8.1381  -8.1356  -8.1356  -8.1293  -8.1293
    -8.1255  -8.1255  -8.1218  -8.1215  -8.1067  -8.0917  -8.0917  -8.0898
    -8.0895  -8.0895  -8.0853  -8.0840  -8.0840  -8.0762  -8.0762  -8.0699
    -8.0691  -8.0691  -8.0688  -8.0501  -8.0361  -8.0340  -8.0266  -8.0266
    -7.9761  -7.9761  -7.9726  -7.9678  -7.9600  -7.9558  -7.9557  -7.9557
    -7.9463  -7.9463  -7.9423  -7.9396  -7.9396  -7.9396  -7.9377  -7.9375
    -7.9371  -7.9348  -7.9311  -7.9311  -7.9276  -7.9262  -7.9262  -7.9256
    -7.9237  -7.9237  -7.9230  -7.9230  -7.9230  -7.9225  -7.9225  -7.9220
    -7.9206  -7.9189  -7.9153  -7.9153  -7.9135  -7.9086  -7.9071  -7.9071
    -7.9038  -7.9036  -7.9030  -7.9030  -7.9003  -7.8974  -7.8964  -7.8964
    -7.8946  -7.8946  -7.8944  -7.8928  -7.8922  -7.8922  -7.8901  -7.8895
    -7.8885  -7.8861  -7.8842  -7.8841  -7.8841  -7.8773  -7.8770  -7.8770
    -7.8727  -7.8725  -7.8725  -7.8686  -7.8681  -7.8676  -7.8655  -7.8655
    -7.8593  -7.8571  -7.8570  -7.8569  -7.8569  -7.8530  -7.8530  -7.8511
    -7.8484  -7.8465  -7.8465  -7.8435  -7.8418  -7.8412  -7.8382  -7.8382
    -7.8361  -7.8361  -7.8357  -7.8351  -7.8341  -7.8341  -7.8306  -7.8303
    -7.8285  -7.8267  -7.8237  -7.8223  -7.8212  -7.8212  -7.8199  -7.8199
    -7.8196  -7.8196  -7.8185  -7.8176  -7.8176  -7.8172  -7.8161  -7.8116
    -7.8098  -7.8098  -7.8039  -7.8023  -7.8021  -7.8021  -7.8007  -7.7991
    -7.7991  -7.7978  -7.7953  -5.8747  -5.0469  -5.0469  -5.0309  -4.7325
    -4.4473  -4.3840  -4.3840  -4.3432  -4.3432  -4.3404  -4.3395  -3.9861
    -3.9299  -3.9299  -3.8270  -3.7804  -3.7783  -3.7761  -3.7761  -3.7297
    -3.7279  -3.7279  -3.7232  -3.7004  -3.6993  -3.6968  -3.6968  -3.5080
    -3.4486  -3.4486  -3.4464  -2.4392   0.6921   0.6921   0.6921   0.7138
     0.7355   0.7355   0.7502   0.7597   0.7764   0.7764   0.7806   0.9731
     1.1018   1.1018   1.1026   1.1074   1.1271   1.1271   1.1343   1.5050
     1.5906   1.5906   1.5934   1.6404   1.6469   1.6469   1.6587   2.8936
     2.8936   2.9255   3.1167   3.2573   3.3058   3.3486   3.3486   3.5328
     3.5328   3.5514   3.6410   3.6423   3.6676   3.6678   3.6678   3.7353
     3.7563   3.7563   3.8063   3.8287   3.8337   3.8337   3.8344   4.1387
     4.1387   4.1408   4.2952   4.3050   4.3087   4.3114   4.3114   4.4131
     4.4131   4.4725   4.4750   4.5690   4.6816   4.6816   4.7638   4.7655
     4.7817   4.7817   4.7843   4.8067   4.8780   4.8780   4.8785   4.9157
     4.9157   4.9163   4.9170   5.0978   5.0978   5.1925   5.1925   5.1965
     5.2048   5.2136   5.2138   5.2567   5.3054   5.3054   5.3142   6.1260
     6.1260   6.1944   6.1998   6.7937   7.6790   8.0696   8.0696   8.2297
     8.2297   8.2543   8.2665   8.3891   8.4106   8.4106   8.4186   8.4438
     8.4546   8.4644   8.4644   8.5436   8.5436   8.7694   8.9759   9.0253
     9.0345   9.0351   9.0351   9.0545   9.1288   9.1288   9.1771   9.1771
     9.1774   9.1840   9.1889   9.3499   9.3787   9.4192   9.4264   9.4264
     9.4537   9.4537   9.4618   9.6705   9.7970   9.7970  10.2591  10.2924
    10.3645  10.3645  10.3723  10.3976  10.4005  10.4005  10.4121  10.4148
    10.4149  10.4339  10.4339  10.4396  10.4505  10.4505  10.4521  10.5713
    10.5867  10.5867  10.6254  10.6527  10.6527  10.7050  10.7062  11.1151
    11.3298  11.3298  11.4315  11.4947  11.4947  11.7668  11.8098  11.8098
    11.8257  11.8293  11.8309  11.8316  11.8681  11.9627  11.9627  12.0172
    12.0172  12.0328  12.0381  12.0462  12.1081  12.1309  12.1309  12.1750
    12.1750  12.1791  12.1859  12.1901  12.1901  12.1985  12.1990  12.2031
    12.2034  12.2097  12.2097  13.1543  13.1816  13.1816  13.3253  13.4271
    13.4271  13.4384  13.4502  13.5256  13.5256  13.6121  13.6228  13.7331
    13.7331  13.8113  13.8233  13.8235  14.0586  14.0586  14.0799  14.1310
    14.1948  14.1948  14.2177  14.3084  14.3084  14.3296  14.4004  14.4090
    14.4279  14.4323  14.4323  14.4347  14.4354  14.4362  14.4362  14.4396
    14.4396  14.4420  14.4453  14.6391  14.6461  14.7039  14.7146  14.7146
    14.7409  14.7522  14.7522  14.9477  14.9536  15.0060  15.0072  15.0108
    15.0108  15.0357  15.0466  15.0466  15.0520  15.0535  15.0535  15.3909
    15.5785  15.5785  15.6910  15.7117  15.7153  15.7937  15.8078  15.8078
    15.8193  15.8240  15.8240  16.1934  16.1934  16.2262  16.4067  16.5186
    16.5231  16.5231  16.5761  16.5761  16.6113  16.6158  16.6308  16.6695
    16.6976  16.7606  16.7635  16.7635  16.7723  16.7723  16.7894  17.0936
    17.0936  17.1766  17.2151  17.3694  17.4069  17.4069  17.4143  17.4717
    17.5116  17.5186  17.5186  17.5445  17.5445  17.5458  17.5807  17.5943
    17.6243  17.6332  17.6332  17.8420

     occupation numbers 
     1.0000   1.0000   1.0000   1.0000   1.0000   1.0000   1.0000   1.0000
     1.0000   1.0000   1.0000   1.0000   1.0000   1.0000   1.0000   1.0000
     1.0000   1.0000   1.0000   1.0000   1.0000   1.0000   1.0000   1.0000
     1.0000   1.0000   1.0000   1.0000   1.0000   1.0000   1.0000   1.0000
     1.0000   1.0000   1.0000   1.0000   1.0000   1.0000   1.0000   1.0000
     1.0000   1.0000   1.0000   1.0000   1.0000   1.0000   1.0000   1.0000
     1.0000   1.0000   1.0000   1.0000   1.0000   1.0000   1.0000   1.0000
     1.0000   1.0000   1.0000   1.0000   1.0000   1.0000   1.0000   1.0000
     1.0000   1.0000   1.0000   1.0000   1.0000   1.0000   1.0000   1.0000
     1.0000   1.0000   1.0000   1.0000   1.0000   1.0000   1.0000   1.0000
     1.0000   1.0000   1.0000   1.0000   1.0000   1.0000   1.0000   1.0000
     1.0000   1.0000   1.0000   1.0000   1.0000   1.0000   1.0000   1.0000
     1.0000   1.0000   1.0000   1.0000   1.0000   1.0000   1.0000   1.0000
     1.0000   1.0000   1.0000   1.0000   1.0000   1.0000   1.0000   1.0000
     1.0000   1.0000   1.0000   1.0000   1.0000   1.0000   1.0000   1.0000
     1.0000   1.0000   1.0000   1.0000   1.0000   1.0000   1.0000   1.0000
     1.0000   1.0000   1.0000   1.0000   1.0000   1.0000   1.0000   1.0000
     1.0000   1.0000   1.0000   1.0000   1.0000   1.0000   1.0000   1.0000
     1.0000   1.0000   1.0000   1.0000   1.0000   1.0000   1.0000   1.0000
     1.0000   1.0000   1.0000   1.0000   1.0000   1.0000   1.0000   1.0000
     1.0000   1.0000   1.0000   1.0000   1.0000   1.0000   1.0000   1.0000
     1.0000   1.0000   1.0000   1.0000   1.0000   1.0000   1.0000   1.0000
     1.0000   1.0000   1.0000   1.0000   1.0000   1.0000   1.0000   1.0000
     1.0000   1.0000   1.0000   1.0000   1.0000   1.0000   1.0000   1.0000
     1.0000   1.0000   1.0000   1.0000   1.0000   1.0000   1.0000   1.0000
     1.0000   1.0000   1.0000   1.0000   1.0000   1.0000   1.0000   1.0000
     1.0000   1.0000   1.0000   1.0000   1.0000   1.0000   1.0000   1.0000
     1.0000   1.0000   1.0000   1.0000   1.0000   1.0000   1.0000   1.0000
     1.0000   1.0000   1.0000   1.0000   1.0000   1.0000   1.0000   1.0000
     1.0000   1.0000   1.0000   1.0000   1.0000   1.0000   1.0000   1.0000
     1.0000   1.0000   1.0000   1.0000   1.0000   1.0000   1.0000   1.0000
     1.0000   1.0000   1.0000   1.0000   1.0000   1.0000   1.0000   1.0000
     1.0000   1.0000   1.0000   1.0000   1.0000   1.0000   1.0000   1.0000
     1.0000   1.0000   1.0000   1.0000   1.0000   1.0000   1.0000   1.0000
     1.0000   1.0000   1.0000   1.0000   1.0000   1.0000   1.0000   1.0000
     1.0000   1.0000   1.0000   0.8146   0.0000   0.0000   0.0000   0.0000
     0.0000   0.0000   0.0000   0.0000   0.0000   0.0000   0.0000   0.0000
     0.0000   0.0000   0.0000   0.0000   0.0000   0.0000   0.0000   0.0000
     0.0000   0.0000   0.0000   0.0000   0.0000   0.0000   0.0000   0.0000
     0.0000   0.0000   0.0000   0.0000   0.0000   0.0000   0.0000   0.0000
     0.0000   0.0000   0.0000   0.0000   0.0000   0.0000   0.0000   0.0000
     0.0000   0.0000   0.0000   0.0000   0.0000   0.0000   0.0000   0.0000
     0.0000   0.0000   0.0000   0.0000   0.0000   0.0000   0.0000   0.0000
     0.0000   0.0000   0.0000   0.0000   0.0000   0.0000   0.0000   0.0000
     0.0000   0.0000   0.0000   0.0000   0.0000   0.0000   0.0000   0.0000
     0.0000   0.0000   0.0000   0.0000   0.0000   0.0000   0.0000   0.0000
     0.0000   0.0000   0.0000   0.0000   0.0000   0.0000   0.0000   0.0000
     0.0000   0.0000   0.0000   0.0000   0.0000   0.0000   0.0000   0.0000
     0.0000   0.0000   0.0000   0.0000   0.0000   0.0000   0.0000   0.0000
     0.0000   0.0000   0.0000   0.0000   0.0000   0.0000   0.0000   0.0000
     0.0000   0.0000   0.0000   0.0000   0.0000   0.0000   0.0000   0.0000
     0.0000   0.0000   0.0000   0.0000   0.0000   0.0000   0.0000   0.0000
     0.0000   0.0000   0.0000   0.0000   0.0000   0.0000   0.0000   0.0000
     0.0000   0.0000   0.0000   0.0000   0.0000   0.0000   0.0000   0.0000
     0.0000   0.0000   0.0000   0.0000   0.0000   0.0000   0.0000   0.0000
     0.0000   0.0000   0.0000   0.0000   0.0000   0.0000   0.0000   0.0000
     0.0000   0.0000   0.0000   0.0000   0.0000   0.0000   0.0000   0.0000
     0.0000   0.0000   0.0000   0.0000   0.0000   0.0000   0.0000   0.0000
     0.0000   0.0000   0.0000   0.0000   0.0000   0.0000   0.0000   0.0000
     0.0000   0.0000   0.0000   0.0000   0.0000   0.0000   0.0000   0.0000
     0.0000   0.0000   0.0000   0.0000   0.0000   0.0000   0.0000   0.0000
     0.0000   0.0000   0.0000   0.0000   0.0000   0.0000   0.0000   0.0000
     0.0000   0.0000   0.0000   0.0000

          k =-0.5000-0.5000-0.5000 ( 25064 PWs)   bands (ev):

    -8.1275  -8.1074  -8.1074  -8.1074  -8.1061  -8.1061  -8.1060  -8.1060
    -8.1060  -8.1051  -8.1051  -8.1051  -8.1044  -8.1039  -8.1039  -8.1037
    -8.1037  -8.1037  -8.0913  -8.0913  -8.0913  -8.0904  -8.0904  -8.0904
    -8.0284  -8.0246  -8.0237  -8.0237  -8.0237  -8.0171  -8.0171  -8.0171
    -7.9501  -7.9501  -7.9501  -7.9474  -7.9474  -7.9474  -7.9451  -7.9451
    -7.9445  -7.9445  -7.9445  -7.9424  -7.9424  -7.9351  -7.9351  -7.9351
    -7.9204  -7.9204  -7.9204  -7.9198  -7.9198  -7.9134  -7.9120  -7.9120
    -7.9120  -7.9083  -7.9083  -7.9083  -7.9064  -7.9064  -7.9064  -7.9047
    -7.9047  -7.9034  -7.8989  -7.8989  -7.8989  -7.8976  -7.8960  -7.8960
    -7.8960  -7.8950  -7.8950  -7.8950  -7.8912  -7.8912  -7.8878  -7.8878
    -7.8878  -7.8860  -7.8860  -7.8860  -7.8833  -7.8823  -7.8823  -7.8823
    -7.8743  -7.8743  -7.8742  -7.8742  -7.8742  -7.8637  -7.8637  -7.8637
    -7.8624  -7.8624  -7.8624  -7.8615  -7.8615  -7.8607  -7.8573  -7.8573
    -7.8573  -7.8547  -7.8547  -7.8547  -7.8498  -7.8498  -7.8498  -7.8441
    -7.8441  -7.8441  -7.8424  -7.8424  -7.8424  -7.8399  -7.8399  -7.8395
    -7.8395  -7.8395  -7.8382  -7.8365  -7.8365  -7.8349  -7.8349  -7.8349
    -7.8267  -7.8267  -7.8267  -7.8260  -7.8235  -7.8235  -7.8159  -7.8159
    -7.8159  -7.8159  -7.8159  -7.8159  -7.8102  -7.8102  -7.8102  -7.8059
    -7.8059  -7.8059  -7.8048  -7.7979  -7.7979  -7.7979  -7.7943  -7.7943
    -7.7943  -7.7904  -7.7904  -5.8632  -4.8764  -4.8764  -4.8764  -4.8420
    -4.8420  -4.8420  -4.8341  -4.2296  -3.9590  -3.9590  -3.9590  -3.7459
    -3.7459  -3.7459  -3.7458  -3.7458  -3.7423  -3.7423  -3.7423  -3.7352
    -3.7352  -3.7352  -3.7342  -3.7332  -3.7332  -3.7323  -3.7323  -3.7323
    -3.7258  -3.7258  -3.7258  -2.4051   0.8607   0.8607   0.8607   0.9243
     0.9243   0.9295   0.9295   0.9295   0.9336   0.9336   0.9336   0.9472
     0.9472   0.9472   0.9533   0.9533   0.9537   0.9537   0.9537   0.9610
     0.9610   0.9610   0.9664   2.4109   2.5735   2.5735   2.5735   2.6861
     2.6861   2.6861   2.7127   3.1432   3.1432   3.1432   3.5410   3.6194
     3.6194   3.6557   3.6557   3.6557   3.6601   3.6601   3.6601   3.6761
     3.6761   3.6761   3.6766   3.6766   3.6766   3.6783   3.6786   3.6786
     3.6825   3.6825   3.6825   4.3215   4.3215   4.3215   4.6447   4.6447
     4.6447   4.6546   4.6546   4.6707   4.6707   4.6707   4.6748   4.6765
     4.6765   4.6765   4.6782   4.6783   4.6783   4.6787   4.6787   4.6787
     4.6842   4.6842   4.6842   5.6564   5.6564   5.6564   5.8536   5.8536
     5.8562   5.8562   5.8562   5.8628   5.8628   5.8628   5.8728   5.8728
     5.8728   5.8734   5.8734   6.3546   7.4241   7.4241   7.4241   7.6101
     7.6101   7.6101   7.6176   8.0864   8.1581   8.1581   8.1581   8.5660
     8.5660   8.6335   8.6335   8.6335   8.6344   8.6344   8.6344   8.6375
     8.6375   8.6375   8.6433   8.6433   8.6440   8.6440   8.6440   8.6482
     8.6482   8.6482   8.6529   9.7651   9.7651   9.7651   9.9286  10.5815
    10.5815  10.5815  10.5919  10.5919  10.6025  10.6025  10.6025  10.6114
    10.6114  10.6114  10.6118  10.6118  10.6165  10.6165  10.6165  10.6196
    10.6196  10.6196  10.6291  10.7018  10.7018  10.7018  10.9865  10.9865
    11.0170  11.0170  11.0170  11.0189  11.0189  11.0189  11.0197  11.0197
    11.0213  11.0213  11.0213  11.4321  11.4321  11.4321  11.4410  11.4985
    11.4985  11.4985  11.5417  11.8666  11.8666  11.8666  12.1573  12.1573
    12.1783  12.1783  12.1783  12.2326  12.2563  12.2563  12.2563  12.2568
    12.2568  12.2618  12.2618  12.2618  12.2619  12.2619  12.2619  12.2666
    12.2702  12.2702  12.2702  12.6564  12.6564  12.6564  12.8988  12.8988
    12.9529  12.9529  12.9529  12.9623  12.9623  12.9623  12.9672  12.9727
    12.9727  12.9727  12.9751  12.9756  12.9756  12.9761  12.9761  12.9761
    12.9776  12.9776  12.9776  14.3608  14.6035  14.6035  14.6035  14.6566
    14.6566  14.6566  14.6700  14.7405  14.7405  14.8948  14.8948  14.8948
    14.9018  14.9018  14.9018  14.9725  14.9725  14.9725  14.9804  14.9804
    14.9832  14.9832  14.9832  15.1940  15.1940  15.1940  15.4517  15.4833
    15.4833  15.4873  15.4873  15.4873  15.5267  15.5267  15.5267  15.5283
    15.5283  15.5283  15.5287  15.5287  15.5294  15.5294  15.5294  15.5368
    15.5368  15.5368  15.5389  16.5372  16.5372  16.5372  17.0212  17.2691
    17.2691  17.4361  17.4361  17.4362  17.4540  17.4540  17.4540  17.4585
    17.4585  17.4605  17.4638  17.4641  17.4641  17.4641  17.4687  17.4687
    17.4687  17.5073  17.5074  17.5074  17.5679  17.5679  17.5679  17.6441
    17.6441  17.6441  17.6714  17.7410  17.7791  17.7791  17.7791  17.8120
    17.8122  17.8632  17.8775  17.8779

     occupation numbers 
     1.0000   1.0000   1.0000   1.0000   1.0000   1.0000   1.0000   1.0000
     1.0000   1.0000   1.0000   1.0000   1.0000   1.0000   1.0000   1.0000
     1.0000   1.0000   1.0000   1.0000   1.0000   1.0000   1.0000   1.0000
     1.0000   1.0000   1.0000   1.0000   1.0000   1.0000   1.0000   1.0000
     1.0000   1.0000   1.0000   1.0000   1.0000   1.0000   1.0000   1.0000
     1.0000   1.0000   1.0000   1.0000   1.0000   1.0000   1.0000   1.0000
     1.0000   1.0000   1.0000   1.0000   1.0000   1.0000   1.0000   1.0000
     1.0000   1.0000   1.0000   1.0000   1.0000   1.0000   1.0000   1.0000
     1.0000   1.0000   1.0000   1.0000   1.0000   1.0000   1.0000   1.0000
     1.0000   1.0000   1.0000   1.0000   1.0000   1.0000   1.0000   1.0000
     1.0000   1.0000   1.0000   1.0000   1.0000   1.0000   1.0000   1.0000
     1.0000   1.0000   1.0000   1.0000   1.0000   1.0000   1.0000   1.0000
     1.0000   1.0000   1.0000   1.0000   1.0000   1.0000   1.0000   1.0000
     1.0000   1.0000   1.0000   1.0000   1.0000   1.0000   1.0000   1.0000
     1.0000   1.0000   1.0000   1.0000   1.0000   1.0000   1.0000   1.0000
     1.0000   1.0000   1.0000   1.0000   1.0000   1.0000   1.0000   1.0000
     1.0000   1.0000   1.0000   1.0000   1.0000   1.0000   1.0000   1.0000
     1.0000   1.0000   1.0000   1.0000   1.0000   1.0000   1.0000   1.0000
     1.0000   1.0000   1.0000   1.0000   1.0000   1.0000   1.0000   1.0000
     1.0000   1.0000   1.0000   1.0000   1.0000   1.0000   1.0000   1.0000
     1.0000   1.0000   1.0000   1.0000   1.0000   1.0000   1.0000   1.0000
     1.0000   1.0000   1.0000   1.0000   1.0000   1.0000   1.0000   1.0000
     1.0000   1.0000   1.0000   1.0000   1.0000   1.0000   1.0000   1.0000
     1.0000   1.0000   1.0000   1.0000   1.0000   1.0000   1.0000   1.0000
     1.0000   1.0000   1.0000   1.0000   1.0000   1.0000   1.0000   1.0000
     1.0000   1.0000   1.0000   1.0000   1.0000   1.0000   1.0000   1.0000
     1.0000   1.0000   1.0000   1.0000   1.0000   1.0000   1.0000   1.0000
     1.0000   1.0000   1.0000   1.0000   1.0000   1.0000   1.0000   1.0000
     1.0000   1.0000   1.0000   1.0000   1.0000   1.0000   1.0000   1.0000
     1.0000   1.0000   1.0000   1.0000   1.0000   1.0000   1.0000   1.0000
     1.0000   1.0000   1.0000   1.0000   1.0000   1.0000   1.0000   1.0000
     1.0000   1.0000   1.0000   1.0000   1.0000   1.0000   1.0000   1.0000
     1.0000   1.0000   1.0000   1.0000   1.0000   1.0000   1.0000   1.0000
     1.0000   1.0000   1.0000   1.0000   1.0000   1.0000   1.0000   1.0000
     1.0000   1.0000   1.0000   1.0000   1.0000   1.0000   1.0000   1.0000
     1.0000   1.0000   1.0000   1.0000   0.0000   0.0000   0.0000   0.0000
     0.0000   0.0000   0.0000   0.0000   0.0000   0.0000   0.0000   0.0000
     0.0000   0.0000   0.0000   0.0000   0.0000   0.0000   0.0000   0.0000
     0.0000   0.0000   0.0000   0.0000   0.0000   0.0000   0.0000   0.0000
     0.0000   0.0000   0.0000   0.0000   0.0000   0.0000   0.0000   0.0000
     0.0000   0.0000   0.0000   0.0000   0.0000   0.0000   0.0000   0.0000
     0.0000   0.0000   0.0000   0.0000   0.0000   0.0000   0.0000   0.0000
     0.0000   0.0000   0.0000   0.0000   0.0000   0.0000   0.0000   0.0000
     0.0000   0.0000   0.0000   0.0000   0.0000   0.0000   0.0000   0.0000
     0.0000   0.0000   0.0000   0.0000   0.0000   0.0000   0.0000   0.0000
     0.0000   0.0000   0.0000   0.0000   0.0000   0.0000   0.0000   0.0000
     0.0000   0.0000   0.0000   0.0000   0.0000   0.0000   0.0000   0.0000
     0.0000   0.0000   0.0000   0.0000   0.0000   0.0000   0.0000   0.0000
     0.0000   0.0000   0.0000   0.0000   0.0000   0.0000   0.0000   0.0000
     0.0000   0.0000   0.0000   0.0000   0.0000   0.0000   0.0000   0.0000
     0.0000   0.0000   0.0000   0.0000   0.0000   0.0000   0.0000   0.0000
     0.0000   0.0000   0.0000   0.0000   0.0000   0.0000   0.0000   0.0000
     0.0000   0.0000   0.0000   0.0000   0.0000   0.0000   0.0000   0.0000
     0.0000   0.0000   0.0000   0.0000   0.0000   0.0000   0.0000   0.0000
     0.0000   0.0000   0.0000   0.0000   0.0000   0.0000   0.0000   0.0000
     0.0000   0.0000   0.0000   0.0000   0.0000   0.0000   0.0000   0.0000
     0.0000   0.0000   0.0000   0.0000   0.0000   0.0000   0.0000   0.0000
     0.0000   0.0000   0.0000   0.0000   0.0000   0.0000   0.0000   0.0000
     0.0000   0.0000   0.0000   0.0000   0.0000   0.0000   0.0000   0.0000
     0.0000   0.0000   0.0000   0.0000   0.0000   0.0000   0.0000   0.0000
     0.0000   0.0000   0.0000   0.0000   0.0000   0.0000   0.0000   0.0000
     0.0000   0.0000   0.0000   0.0000   0.0000   0.0000   0.0000   0.0000
     0.0000   0.0000   0.0000   0.0000

 ------ SPIN DOWN ----------


          k = 0.0000 0.0000 0.0000 ( 25269 PWs)   bands (ev):

    -8.1928  -8.1928  -8.1928  -8.1309  -8.1110  -8.1110  -8.1054  -8.1054
    -8.1054  -8.1035  -8.1035  -8.1035  -8.0903  -8.0903  -8.0903  -8.0892
    -8.0891  -8.0891  -8.0861  -8.0861  -8.0861  -8.0835  -8.0835  -8.0835
    -8.0675  -8.0675  -8.0675  -8.0470  -8.0383  -8.0383  -8.0383  -7.9743
    -7.9743  -7.9743  -7.9723  -7.9723  -7.9723  -7.9647  -7.9647  -7.9647
    -7.9500  -7.9500  -7.9500  -7.9442  -7.9442  -7.9442  -7.9436  -7.9436
    -7.9422  -7.9392  -7.9392  -7.9392  -7.9389  -7.9389  -7.9375  -7.9375
    -7.9375  -7.9340  -7.9253  -7.9253  -7.9253  -7.9249  -7.9249  -7.9249
    -7.9193  -7.9193  -7.9193  -7.9177  -7.9177  -7.9173  -7.9173  -7.9173
    -7.9161  -7.9161  -7.9161  -7.9121  -7.8996  -7.8996  -7.8987  -7.8987
    -7.8987  -7.8957  -7.8957  -7.8957  -7.8924  -7.8924  -7.8924  -7.8895
    -7.8895  -7.8884  -7.8759  -7.8759  -7.8759  -7.8723  -7.8723  -7.8723
    -7.8683  -7.8683  -7.8683  -7.8673  -7.8673  -7.8673  -7.8625  -7.8625
    -7.8625  -7.8619  -7.8585  -7.8585  -7.8524  -7.8522  -7.8522  -7.8522
    -7.8518  -7.8518  -7.8518  -7.8448  -7.8448  -7.8448  -7.8427  -7.8427
    -7.8401  -7.8380  -7.8380  -7.8380  -7.8376  -7.8376  -7.8324  -7.8324
    -7.8324  -7.8277  -7.8277  -7.8277  -7.8269  -7.8229  -7.8229  -7.8205
    -7.8205  -7.8205  -7.8193  -7.8193  -7.8193  -7.8175  -7.8175  -7.8175
    -7.8144  -7.8117  -7.8117  -7.8094  -7.8077  -7.8077  -7.8026  -7.7986
    -7.7986  -7.7513  -7.7513  -5.9131  -5.2691  -4.6808  -4.6808  -4.6808
[...]
     atom   31 type  1   force =    -0.00022847   -0.00022847    0.00044852
     atom   32 type  1   force =    -0.00007764   -0.00007764    0.00001764
     atom   33 type  2   force =     0.00009896    0.00009896    0.00009896
     atom   34 type  2   force =    -0.00001511   -0.00001511   -0.00013202
     atom   35 type  2   force =    -0.00001511   -0.00013202   -0.00001511
     atom   36 type  2   force =     0.00029184    0.00023233    0.00023233
     atom   37 type  2   force =    -0.00013202   -0.00001511   -0.00001511
     atom   38 type  2   force =     0.00023233    0.00029184    0.00023233
     atom   39 type  2   force =     0.00023233    0.00023233    0.00029184
     atom   40 type  2   force =    -0.00370947   -0.00370947   -0.00370947
     atom   41 type  2   force =     0.00029184   -0.00023233   -0.00023233
     atom   42 type  2   force =    -0.00001511    0.00013202    0.00001511
     atom   43 type  2   force =    -0.00001511    0.00001511    0.00013202
     atom   44 type  2   force =     0.00009896   -0.00009896   -0.00009896
     atom   45 type  2   force =    -0.00370947    0.00370947    0.00370947
     atom   46 type  2   force =     0.00023233   -0.00023233   -0.00029184
     atom   47 type  2   force =     0.00023233   -0.00029184   -0.00023233
     atom   48 type  2   force =    -0.00013202    0.00001511    0.00001511
     atom   49 type  2   force =    -0.00023233    0.00029184   -0.00023233
     atom   50 type  2   force =     0.00013202   -0.00001511    0.00001511
     atom   51 type  2   force =     0.00370947   -0.00370947    0.00370947
     atom   52 type  2   force =    -0.00023233    0.00023233   -0.00029184
     atom   53 type  2   force =     0.00001511   -0.00001511    0.00013202
     atom   54 type  2   force =    -0.00009896    0.00009896   -0.00009896
     atom   55 type  2   force =    -0.00029184    0.00023233   -0.00023233
     atom   56 type  2   force =     0.00001511   -0.00013202    0.00001511
     atom   57 type  2   force =    -0.00023233   -0.00023233    0.00029184
     atom   58 type  2   force =     0.00370947    0.00370947   -0.00370947
     atom   59 type  2   force =     0.00013202    0.00001511   -0.00001511
     atom   60 type  2   force =    -0.00023233   -0.00029184    0.00023233
     atom   61 type  2   force =     0.00001511    0.00013202   -0.00001511
     atom   62 type  2   force =    -0.00029184   -0.00023233    0.00023233
     atom   63 type  2   force =    -0.00009896   -0.00009896    0.00009896
     atom   64 type  2   force =     0.00001511    0.00001511   -0.00013202
     The Hubbard contrib.    to forces
     atom    1 type  2   force =     0.00000000    0.00000000    0.00000000
     atom    2 type  1   force =     0.00000000    0.00000000    0.00000000
     atom    3 type  1   force =     0.00000000    0.00000000    0.00000000
     atom    4 type  1   force =     0.00000000    0.00000000    0.00000000
     atom    5 type  1   force =     0.00000000    0.00000000    0.00000000
     atom    6 type  1   force =     0.00000000    0.00000000    0.00000000
     atom    7 type  1   force =     0.00000000    0.00000000    0.00000000
     atom    8 type  1   force =     0.00000000    0.00000000    0.00000000
     atom    9 type  1   force =     0.00000000    0.00000000    0.00000000
     atom   10 type  1   force =     0.00000000    0.00000000    0.00000000
     atom   11 type  1   force =     0.00000000    0.00000000    0.00000000
     atom   12 type  1   force =     0.00000000    0.00000000    0.00000000
     atom   13 type  1   force =     0.00000000    0.00000000    0.00000000
     atom   14 type  1   force =     0.00000000    0.00000000    0.00000000
     atom   15 type  1   force =     0.00000000    0.00000000    0.00000000
     atom   16 type  1   force =     0.00000000    0.00000000    0.00000000
     atom   17 type  1   force =     0.00000000    0.00000000    0.00000000
     atom   18 type  1   force =     0.00000000    0.00000000    0.00000000
     atom   19 type  1   force =     0.00000000    0.00000000    0.00000000
     atom   20 type  1   force =     0.00000000    0.00000000    0.00000000
     atom   21 type  1   force =     0.00000000    0.00000000    0.00000000
     atom   22 type  1   force =     0.00000000    0.00000000    0.00000000
     atom   23 type  1   force =     0.00000000    0.00000000    0.00000000
     atom   24 type  1   force =     0.00000000    0.00000000    0.00000000
     atom   25 type  1   force =     0.00000000    0.00000000    0.00000000
     atom   26 type  1   force =     0.00000000    0.00000000    0.00000000
     atom   27 type  1   force =     0.00000000    0.00000000    0.00000000
     atom   28 type  1   force =     0.00000000    0.00000000    0.00000000
     atom   29 type  1   force =     0.00000000    0.00000000    0.00000000
     atom   30 type  1   force =     0.00000000    0.00000000    0.00000000
     atom   31 type  1   force =     0.00000000    0.00000000    0.00000000
     atom   32 type  1   force =     0.00000000    0.00000000    0.00000000
     atom   33 type  2   force =     0.00000000    0.00000000    0.00000000
     atom   34 type  2   force =     0.00000000    0.00000000    0.00000000
     atom   35 type  2   force =     0.00000000    0.00000000    0.00000000
     atom   36 type  2   force =     0.00000000    0.00000000    0.00000000
     atom   37 type  2   force =     0.00000000    0.00000000    0.00000000
     atom   38 type  2   force =     0.00000000    0.00000000    0.00000000
     atom   39 type  2   force =     0.00000000    0.00000000    0.00000000
     atom   40 type  2   force =     0.00000000    0.00000000    0.00000000
     atom   41 type  2   force =     0.00000000    0.00000000    0.00000000
     atom   42 type  2   force =     0.00000000    0.00000000    0.00000000
     atom   43 type  2   force =     0.00000000    0.00000000    0.00000000
     atom   44 type  2   force =     0.00000000    0.00000000    0.00000000
     atom   45 type  2   force =     0.00000000    0.00000000    0.00000000
     atom   46 type  2   force =     0.00000000    0.00000000    0.00000000
     atom   47 type  2   force =     0.00000000    0.00000000    0.00000000
     atom   48 type  2   force =     0.00000000    0.00000000    0.00000000
     atom   49 type  2   force =     0.00000000    0.00000000    0.00000000
     atom   50 type  2   force =     0.00000000    0.00000000    0.00000000
     atom   51 type  2   force =     0.00000000    0.00000000    0.00000000
     atom   52 type  2   force =     0.00000000    0.00000000    0.00000000
     atom   53 type  2   force =     0.00000000    0.00000000    0.00000000
     atom   54 type  2   force =     0.00000000    0.00000000    0.00000000
     atom   55 type  2   force =     0.00000000    0.00000000    0.00000000
     atom   56 type  2   force =     0.00000000    0.00000000    0.00000000
     atom   57 type  2   force =     0.00000000    0.00000000    0.00000000
     atom   58 type  2   force =     0.00000000    0.00000000    0.00000000
     atom   59 type  2   force =     0.00000000    0.00000000    0.00000000
     atom   60 type  2   force =     0.00000000    0.00000000    0.00000000
     atom   61 type  2   force =     0.00000000    0.00000000    0.00000000
     atom   62 type  2   force =     0.00000000    0.00000000    0.00000000
     atom   63 type  2   force =     0.00000000    0.00000000    0.00000000
     atom   64 type  2   force =     0.00000000    0.00000000    0.00000000
     The SCF correction term to forces
     atom    1 type  2   force =    -0.00000000   -0.00000000   -0.00000000
     atom    2 type  1   force =     0.00000000    0.00000000   -0.00000000
     atom    3 type  1   force =     0.00000000   -0.00000000    0.00000000
     atom    4 type  1   force =     0.00000000   -0.00000000   -0.00000000
     atom    5 type  1   force =     0.00000000    0.00000000    0.00000000
     atom    6 type  1   force =     0.00000000   -0.00000000   -0.00000000
     atom    7 type  1   force =     0.00000000   -0.00000000    0.00000000
     atom    8 type  1   force =     0.00000000    0.00000000   -0.00000000
     atom    9 type  1   force =    -0.00000450    0.00001363    0.00001363
     atom   10 type  1   force =     0.00000450    0.00001363   -0.00001363
     atom   11 type  1   force =     0.00000450   -0.00001363    0.00001363
     atom   12 type  1   force =    -0.00000450   -0.00001363   -0.00001363
     atom   13 type  1   force =     0.00000542   -0.00000015   -0.00000015
     atom   14 type  1   force =    -0.00000542   -0.00000015    0.00000015
     atom   15 type  1   force =    -0.00000542    0.00000015   -0.00000015
     atom   16 type  1   force =     0.00000542    0.00000015    0.00000015
     atom   17 type  1   force =     0.00001363   -0.00000450    0.00001363
     atom   18 type  1   force =     0.00001363    0.00000450   -0.00001363
     atom   19 type  1   force =    -0.00000015    0.00000542   -0.00000015
     atom   20 type  1   force =    -0.00000015   -0.00000542    0.00000015
     atom   21 type  1   force =    -0.00001363    0.00000450    0.00001363
     atom   22 type  1   force =    -0.00001363   -0.00000450   -0.00001363
     atom   23 type  1   force =     0.00000015   -0.00000542   -0.00000015
     atom   24 type  1   force =     0.00000015    0.00000542    0.00000015
     atom   25 type  1   force =     0.00001363    0.00001363   -0.00000450
     atom   26 type  1   force =    -0.00000015   -0.00000015    0.00000542
     atom   27 type  1   force =     0.00001363   -0.00001363    0.00000450
     atom   28 type  1   force =    -0.00000015    0.00000015   -0.00000542
     atom   29 type  1   force =    -0.00001363    0.00001363    0.00000450
     atom   30 type  1   force =     0.00000015   -0.00000015   -0.00000542
     atom   31 type  1   force =    -0.00001363   -0.00001363   -0.00000450
     atom   32 type  1   force =     0.00000015    0.00000015    0.00000542
     atom   33 type  2   force =    -0.00000016   -0.00000016   -0.00000016
     atom   34 type  2   force =    -0.00000077   -0.00000077   -0.00000181
     atom   35 type  2   force =    -0.00000077   -0.00000181   -0.00000077
     atom   36 type  2   force =     0.00000373   -0.00000229   -0.00000229
     atom   37 type  2   force =    -0.00000181   -0.00000077   -0.00000077
     atom   38 type  2   force =    -0.00000229    0.00000373   -0.00000229
     atom   39 type  2   force =    -0.00000229   -0.00000229    0.00000373
     atom   40 type  2   force =    -0.00000590   -0.00000590   -0.00000590
     atom   41 type  2   force =     0.00000373    0.00000229    0.00000229
     atom   42 type  2   force =    -0.00000077    0.00000181    0.00000077
     atom   43 type  2   force =    -0.00000077    0.00000077    0.00000181
     atom   44 type  2   force =    -0.00000016    0.00000016    0.00000016
     atom   45 type  2   force =    -0.00000590    0.00000590    0.00000590
     atom   46 type  2   force =    -0.00000229    0.00000229   -0.00000373
     atom   47 type  2   force =    -0.00000229   -0.00000373    0.00000229
     atom   48 type  2   force =    -0.00000181    0.00000077    0.00000077
     atom   49 type  2   force =     0.00000229    0.00000373    0.00000229
     atom   50 type  2   force =     0.00000181   -0.00000077    0.00000077
     atom   51 type  2   force =     0.00000590   -0.00000590    0.00000590
     atom   52 type  2   force =     0.00000229   -0.00000229   -0.00000373
     atom   53 type  2   force =     0.00000077   -0.00000077    0.00000181
     atom   54 type  2   force =     0.00000016   -0.00000016    0.00000016
     atom   55 type  2   force =    -0.00000373   -0.00000229    0.00000229
     atom   56 type  2   force =     0.00000077   -0.00000181    0.00000077
     atom   57 type  2   force =     0.00000229    0.00000229    0.00000373
     atom   58 type  2   force =     0.00000590    0.00000590   -0.00000590
     atom   59 type  2   force =     0.00000181    0.00000077   -0.00000077
     atom   60 type  2   force =     0.00000229   -0.00000373   -0.00000229
     atom   61 type  2   force =     0.00000077    0.00000181   -0.00000077
     atom   62 type  2   force =    -0.00000373    0.00000229   -0.00000229
     atom   63 type  2   force =     0.00000016    0.00000016   -0.00000016
     atom   64 type  2   force =     0.00000077    0.00000077   -0.00000181

     Total force =     0.003867     Total SCF correction =     0.000076

     bfgs converged in   5 scf cycles and   4 bfgs steps
     (criteria: energy <  1.0E-04 Ry, force <  1.0E-03 Ry/Bohr)

     End of BFGS Geometry Optimization

     Final energy   =   -5445.1534154850 Ry
Begin final coordinates

ATOMIC_POSITIONS (crystal)
As            0.0000000000        0.0000000000        0.0000000000
In            0.0000000000        0.0000000000        0.5000000000
In            0.0000000000        0.5000000000        0.0000000000
In            0.0000000000        0.5000000000        0.5000000000
In            0.5000000000        0.0000000000        0.0000000000
In            0.5000000000        0.0000000000        0.5000000000
In            0.5000000000        0.5000000000        0.0000000000
In            0.5000000000        0.5000000000        0.5000000000
In            0.0006947837        0.2501563472        0.2501563472
In           -0.0006947837        0.2501563472        0.7498436528
In           -0.0006947837        0.7498436528        0.2501563472
In            0.0006947837        0.7498436528        0.7498436528
In            0.4998783164        0.2500438960        0.2500438960
In            0.5001216836        0.2500438960        0.7499561040
In            0.5001216836        0.7499561040        0.2500438960
In            0.4998783164        0.7499561040        0.7499561040
In            0.2501563472        0.0006947837        0.2501563472
In            0.2501563472       -0.0006947837        0.7498436528
In            0.2500438960        0.4998783164        0.2500438960
In            0.2500438960        0.5001216836        0.7499561040
In            0.7498436528       -0.0006947837        0.2501563472
In            0.7498436528        0.0006947837        0.7498436528
In            0.7499561040        0.5001216836        0.2500438960
In            0.7499561040        0.4998783164        0.7499561040
In            0.2501563472        0.2501563472        0.0006947837
In            0.2500438960        0.2500438960        0.4998783164
In            0.2501563472        0.7498436528       -0.0006947837
In            0.2500438960        0.7499561040        0.5001216836
In            0.7498436528        0.2501563472       -0.0006947837
In            0.7499561040        0.2500438960        0.5001216836
In            0.7498436528        0.7498436528        0.0006947837
In            0.7499561040        0.7499561040        0.4998783164
As            0.3750028310        0.3750028310        0.3750028310
As            0.3748097124        0.3748097124        0.8748105707
As            0.3748097124        0.8748105707        0.3748097124
As            0.3750794868        0.8751006187        0.8751006187
As            0.8748105707        0.3748097124        0.3748097124
As            0.8751006187        0.3750794868        0.8751006187
As            0.8751006187        0.8751006187        0.3750794868
As            0.8759532371        0.8759532371        0.8759532371
As            0.3750794868        0.1248993813        0.1248993813
As            0.3748097124        0.1251894293        0.6251902876
As            0.3748097124        0.6251902876        0.1251894293
As            0.3750028310        0.6249971690        0.6249971690
As            0.8759532371        0.1240467629        0.1240467629
As            0.8751006187        0.1248993813        0.6249205132
As            0.8751006187        0.6249205132        0.1248993813
As            0.8748105707        0.6251902876        0.6251902876
As            0.1248993813        0.3750794868        0.1248993813
As            0.1251894293        0.3748097124        0.6251902876
As            0.1240467629        0.8759532371        0.1240467629
As            0.1248993813        0.8751006187        0.6249205132
As            0.6251902876        0.3748097124        0.1251894293
As            0.6249971690        0.3750028310        0.6249971690
As            0.6249205132        0.8751006187        0.1248993813
As            0.6251902876        0.8748105707        0.6251902876
As            0.1248993813        0.1248993813        0.3750794868
As            0.1240467629        0.1240467629        0.8759532371
As            0.1251894293        0.6251902876        0.3748097124
As            0.1248993813        0.6249205132        0.8751006187
As            0.6251902876        0.1251894293        0.3748097124
As            0.6249205132        0.1248993813        0.8751006187
As            0.6249971690        0.6249971690        0.3750028310
As            0.6251902876        0.6251902876        0.8748105707
End final coordinates



     Writing output data file ./temp/inas.save/
 
     init_run     :      9.28s CPU      9.56s WALL (       1 calls)
     electrons    :   4282.90s CPU   4323.07s WALL (       6 calls)
     update_pot   :      0.58s CPU      0.59s WALL (       4 calls)
     forces       :     33.55s CPU     33.75s WALL (       6 calls)

     Called by init_run:
     wfcinit      :      8.82s CPU      9.04s WALL (       1 calls)
     wfcinit:wfcr :      8.52s CPU      8.69s WALL (       8 calls)
     potinit      :      0.10s CPU      0.10s WALL (       2 calls)
     hinit0       :      0.08s CPU      0.11s WALL (       1 calls)

     Called by electrons:
     c_bands      :   4071.77s CPU   4109.27s WALL (      70 calls)
     sum_band     :    201.48s CPU    203.60s WALL (      70 calls)
     v_of_rho     :      2.38s CPU      2.40s WALL (      72 calls)
     v_h          :      0.07s CPU      0.07s WALL (      72 calls)
     v_xc         :      2.50s CPU      2.53s WALL (      78 calls)
     newd         :      7.47s CPU      7.85s WALL (      72 calls)
     mix_rho      :      0.48s CPU      0.53s WALL (      70 calls)

     Called by c_bands:
     init_us_2    :      7.96s CPU      8.02s WALL (    1176 calls)
     cegterg      :   3949.36s CPU   3986.01s WALL (     560 calls)

     Called by sum_band:
     sum_band:bec :      4.34s CPU      4.36s WALL (     560 calls)
     addusdens    :      9.40s CPU      9.87s WALL (      70 calls)

     Called by *egterg:
     h_psi        :    810.48s CPU    820.79s WALL (    2521 calls)
     s_psi        :    179.31s CPU    179.92s WALL (    2521 calls)
     g_psi        :      1.88s CPU      1.89s WALL (    1953 calls)
     cdiaghg      :   2471.74s CPU   2480.65s WALL (    2441 calls)
     cegterg:over :    211.07s CPU    216.08s WALL (    1953 calls)
     cegterg:upda :    119.78s CPU    122.01s WALL (    1953 calls)
     cegterg:last :     79.84s CPU     80.12s WALL (     576 calls)

     Called by h_psi:
     h_psi:calbec :    179.68s CPU    180.31s WALL (    2521 calls)
     vloc_psi     :    448.71s CPU    454.60s WALL (    2521 calls)
     add_vuspsi   :    179.23s CPU    179.87s WALL (    2521 calls)

     General routines
     calbec       :    279.20s CPU    280.16s WALL (    3273 calls)
     fft          :      1.03s CPU      1.07s WALL (    1624 calls)
     ffts         :      0.09s CPU      0.09s WALL (     140 calls)
     fftw         :    478.00s CPU    484.24s WALL ( 1607524 calls)
 
     Parallel routines
     fft_scatt_xy :     57.35s CPU     58.06s WALL ( 1609288 calls)
     fft_scatt_yz :    147.74s CPU    149.75s WALL ( 1609288 calls)
 
     PWSCF        :      1h12m CPU      1h12m WALL

 
   This run was terminated on:  16:13:48  14May2024            

=------------------------------------------------------------------------------=
   JOB DONE.
=------------------------------------------------------------------------------=
TACC:  Shutdown complete. Exiting. 
